<?xml version="1.0"?>
<VTKFile type="UnstructuredGrid"  version="0.1"  >
<UnstructuredGrid>
<Piece  NumberOfPoints="26111" NumberOfCells="51284">
<Points>
<DataArray  type="Float64"  NumberOfComponents="3"  format="ascii">239.8 188 0  250.2 180 0  258.2 172.4 0  257 169.4 0  259.9 157.4 0  258.7 150.3 0  261 143.5 0  251.7 144.4 0  250 138.7 0  247 138.1 0  245.2 130.8 0  247.3 126.4 0  242.7 118.6 0  231.2 107.7 0  226 102.4 0  226.5 93.90000000000001 0  224.5 91.19999999999999 0  224.5 84.09999999999999 0  234.5 73.80000000000001 0  228.4 68.90000000000001 0  230 70 0  233.4 68 0  222.7 61.5 0  220.6 45.5 0  223.4 49.40000000000001 0  224 47 0  221.8 43.09999999999999 0  221 38.40000000000001 0  219.5 38.5 0  219.4 41.69999999999999 0  217.1 36.90000000000001 0  209.7 36 0  209.5 31.69999999999999 0  205.1 29.90000000000001 0  201.5 30.40000000000001 0  199.2 38.69999999999999 0  201.8 41.40000000000001 0  194.8 53.80000000000001 0  196.1 57.69999999999999 0  193 59 0  191.4 66.09999999999999 0  193.5 66.5 0  194.1 64.40000000000001 0  195.6 64.69999999999999 0  195.4 72.40000000000001 0  199.5 77.30000000000001 0  197.7 86.90000000000001 0  200.6 87.5 0  201.5 91 0  198 94.80000000000001 0  198.6 100 0  197.3 105.4 0  198 109.5 0  197 112.7 0  198.3 116.1 0  201.3 122 0  207.2 121 0  208.1 126.7 0  205.6 127.9 0  209.1 134.9 0  210.9 144.4 0  210.1 147.9 0  213 148.4 0  215.4 149.3 0  215.1 152.8 0  219.9 159.7 0  220.3 163.2 0  218.7 164.9 0  219.9 166.7 0  221.9 169.7 0  220 170.3 0  224.9 174.7 0  229.8 177.4 0  229.7 181 0  228 172.9 0  239 178 0  240.4 180 0  239 181.5 0  241.2 185.9 0  242.95 187.99 0  240.2683998954481 187.9985130162049 0  240.8064499792029 187.996804920701 0  241.4245072212198 187.9948428342184 0  242.1344685938113 187.9925889885911 0  243.6047967303995 187.2683688447046 0  244.2300238016934 186.5793254930303 0  244.8270167459974 185.9213980964801 0  245.3970504076993 185.2931816886183 0  245.9413423691472 184.693334409726 0  246.4610548009146 184.1205754676817 0  246.9572980162405 183.5736812207225 0  247.4311315258271 183.051484014985 0  247.8835676021671 182.5528682563703 0  248.3155723408242 182.07676924094 0  248.728068439607 181.6221700920744 0  249.1219369108593 181.1880998734116 0  249.4980188478629 180.7736316421483 0  249.8571175669105 180.377880088329 0  250.547826086972 179.6695652173766 0  250.895652173944 179.3391304347532 0  251.2434782609215 179.0086956521245 0  251.5913043478991 178.6782608694958 0  251.9391304348711 178.3478260868724 0  252.2869565218431 178.017391304249 0  252.6347826088151 177.6869565216256 0  252.9826086957927 177.3565217389969 0  253.3304347827705 177.0260869563681 0  253.6782608697478 176.6956521737396 0  254.0260869567192 176.3652173911168 0  254.3739130436896 176.0347826084949 0  254.721739130661 175.704347825872 0  255.0695652176383 175.3739130432436 0  255.4173913046161 175.0434782606147 0  255.7652173915936 174.713043477986 0  256.113043478541 174.382608695386 0  256.4608695654481 174.0521739128243 0  256.8086956523607 173.7217391302573 0  257.1565217392733 173.3913043476904 0  257.5043478261859 173.0608695651234 0  257.8521739130929 172.7304347825617 0  258.0285714285786 171.9714285714466 0  257.8571428571497 171.5428571428741 0  257.6857142857176 171.1142857142939 0  257.5142857142855 170.6857142857137 0  257.3428571428534 170.2571428571335 0  257.1714285714214 169.8285714285533 0  257.1160000000011 168.9199999999954 0  257.232000000001 168.4399999999959 0  257.3480000000009 167.9599999999964 0  257.4640000000007 167.4799999999969 0  257.5800000000006 166.9999999999974 0  257.6960000000005 166.5199999999979 0  257.8120000000004 166.0399999999985 0  257.9280000000002 165.559999999999 0  258.044 165.0799999999997 0  258.1599999999999 164.6000000000005 0  258.2759999999997 164.1200000000013 0  258.3919999999995 163.6400000000021 0  258.5080000000005 163.1599999999978 0  258.6240000000003 162.6799999999987 0  258.7400000000001 162.1999999999995 0  258.8559999999999 161.7200000000003 0  258.9719999999998 161.240000000001 0  259.0879999999996 160.7600000000015 0  259.2039999999995 160.280000000002 0  259.3199999999994 159.8000000000025 0  259.4359999999992 159.320000000003 0  259.5519999999991 158.8400000000035 0  259.667999999999 158.360000000004 0  259.7839999999989 157.8800000000045 0  259.8200000000007 156.9266666666707 0  259.7400000000017 156.4533333333432 0  259.660000000002 155.980000000012 0  259.580000000001 155.5066666666725 0  259.5000000000012 155.0333333333406 0  259.4200000000022 154.560000000013 0  259.3400000000019 154.0866666666782 0  259.2600000000017 153.6133333333434 0  259.1800000000014 153.1400000000086 0  259.1000000000006 152.6666666666702 0  259.0200000000008 152.1933333333383 0  258.9399999999998 151.7199999999988 0  258.8599999999983 151.2466666666568 0  258.7799999999993 150.7733333333293 0  258.8533333333361 149.8466666666585 0  259.0066666666722 149.3933333333169 0  259.160000000005 148.9399999999853 0  259.3133333333344 148.4866666666637 0  259.4666666666643 148.0333333333404 0  259.6199999999965 147.5800000000104 0  259.7733333333283 147.1266666666815 0  259.9266666666616 146.6733333333484 0  260.0799999999934 146.2200000000195 0  260.233333333329 145.7666666666796 0  260.3866666666589 145.3133333333563 0  260.5399999999917 144.8600000000247 0  260.6933333333278 144.4066666666831 0  260.8466666666639 143.9533333333416 0  260.5105263158154 143.5473684210501 0  260.0210526316203 143.5947368421013 0  259.5315789474334 143.6421052631516 0  259.0421052632076 143.6894736842057 0  258.5526315789895 143.7368421052591 0  258.0631578947787 143.7842105263117 0  257.573684210553 143.8315789473658 0  257.0842105263371 143.878947368419 0  256.5947368421236 143.9263157894719 0  256.1052631578984 143.973684210526 0  255.6157894736727 144.0210526315801 0  255.1263157894516 144.0684210526337 0  254.6368421052409 144.1157894736863 0  254.1473684210308 144.1631578947389 0  253.6578947368314 144.2105263157905 0  253.1684210526315 144.2578947368421 0  252.6789473684208 144.3052631578947 0  252.1894736842217 144.3526315789463 0  251.5583333333298 143.9249999999882 0  251.4166666666658 143.4499999999971 0  251.2750000000023 142.9750000000076 0  251.1333333333388 142.5000000000182 0  250.9916666666717 142.0250000000168 0  250.8500000000015 141.5500000000051 0  250.7083333333314 141.0749999999933 0  250.5666666666612 140.5999999999818 0  250.4249999999977 140.1249999999923 0  250.2833333333342 139.6500000000029 0  250.1416666666702 139.1750000000117 0  249.5714285714283 138.6142857142856 0  249.142857142857 138.5285714285714 0  248.7142857142871 138.4428571428574 0  248.285714285715 138.357142857143 0  247.857142857143 138.2714285714286 0  247.4285714285717 138.1857142857144 0  246.8874999999995 137.6437499999979 0  246.7750000000005 137.1875000000023 0  246.662500000001 136.7312500000041 0  246.5500000000021 136.2750000000085 0  246.4375000000032 135.8187500000129 0  246.3250000000036 135.3625000000147 0  246.2125000000047 134.9062500000191 0  246.1000000000042 134.450000000017 0  245.9875000000011 133.9937500000044 0  245.8750000000022 133.5375000000088 0  245.7625000000026 133.0812500000106 0  245.650000000003 132.6250000000124 0  245.5375000000041 132.1687500000168 0  245.4250000000046 131.7125000000187 0  245.3125000000031 131.2562500000126 0  245.4099999999997 130.3600000000006 0  245.619999999996 129.9200000000084 0  245.8300000000029 129.4799999999939 0  246.0399999999992 129.0400000000017 0  246.2499999999989 128.6000000000023 0  246.4599999999987 128.1600000000028 0  246.6699999999966 127.720000000007 0  246.8800000000001 127.2799999999997 0  247.0899999999962 126.840000000008 0  247.0578947368415 125.9894736842094 0  246.815789473683 125.578947368419 0  246.5736842105246 125.1684210526286 0  246.3315789473688 124.7578947368428 0  246.0894736842088 124.3473684210496 0  245.847368421051 123.9368421052603 0  245.6052631578944 123.5263157894731 0  245.3631578947421 123.1157894736931 0  245.121052631583 122.7052631579015 0  244.8789473684243 122.2947368421108 0  244.6368421052652 121.8842105263193 0  244.3947368421094 121.4736842105334 0  244.1526315789515 121.0631578947438 0  243.9105263157933 120.6526315789539 0  243.6684210526312 120.2421052631572 0  243.4263157894754 119.8315789473714 0  243.184210526317 119.421052631581 0  242.9421052631585 119.0105263157906 0  242.3406250000005 118.2593750000005 0  241.9812499999996 117.9187499999997 0  241.6218750000002 117.5781250000002 0  241.2625000000007 117.2375000000007 0  240.9031250000012 116.8968750000012 0  240.5437500000017 116.5562500000017 0  240.1843750000022 116.2156250000021 0  239.8250000000041 115.875000000004 0  239.4656250000061 115.5343750000058 0  239.1062500000066 115.1937500000063 0  238.7468750000071 114.8531250000068 0  238.3875000000076 114.5125000000072 0  238.0281250000081 114.1718750000077 0  237.6687500000087 113.8312500000082 0  237.3093750000078 113.4906250000074 0  236.9500000000083 113.1500000000079 0  236.5906250000088 112.8093750000084 0  236.231250000008 112.4687500000076 0  235.8718750000085 112.1281250000081 0  235.512500000009 111.7875000000085 0  235.1531250000068 111.4468750000064 0  234.7937500000045 111.1062500000043 0  234.4343750000036 110.7656250000035 0  234.0750000000042 110.4250000000039 0  233.7156250000061 110.0843750000057 0  233.3562500000066 109.7437500000062 0  232.9968750000043 109.4031250000041 0  232.6375000000021 109.062500000002 0  232.2781250000026 108.7218750000025 0  231.9187500000031 108.381250000003 0  231.5593750000022 108.0406250000021 0  230.8533333333311 107.3466666666643 0  230.5066666666661 106.9933333333328 0  230.1599999999976 106.6399999999975 0  229.8133333333373 106.2866666666707 0  229.4666666666717 105.9333333333385 0  229.1200000000069 105.580000000007 0  228.7733333333389 105.2266666666724 0  228.4266666666694 104.8733333333361 0  228.0800000000003 104.5200000000003 0  227.7333333333338 104.1666666666672 0  
[...]
<PointData  Vectors="f_24"> 
<DataArray  type="Float64"  Name="f_24"  NumberOfComponents="3" format="ascii">1.0000000000000000e-02 1.0000000000000000e-02 1.0000000000000000e-02  1.0000000000000000e-02 1.0000000000000000e-02 1.0000000000000000e-02  1.0000000000000000e-02 1.0000000000000000e-02 1.0000000000000000e-02  1.0000000000000000e-02 1.0000000000000000e-02 1.0000000000000000e-02  1.0000000000000000e-02 1.0000000000000000e-02 1.0000000000000000e-02  1.0000000000000000e-02 1.0000000000000000e-02 1.0000000000000000e-02  1.0000000000000000e-02 1.0000000000000000e-02 1.0000000000000000e-02  1.0000000000000000e-02 1.0000000000000000e-02 1.0000000000000000e-02  1.0000000000000000e-02 1.0000000000000000e-02 1.0000000000000000e-02  1.0000000000000000e-02 1.0000000000000000e-02 1.0000000000000000e-02  1.0000000000000000e-02 1.0000000000000000e-02 1.0000000000000000e-02  1.0000000000000000e-02 1.0000000000000000e-02 1.0000000000000000e-02  1.0000000000000000e-02 1.0000000000000000e-02 1.0000000000000000e-02  1.9581922242293097e-03 1.6928773169816191e-01 5.3656807243018600e-01  1.9722715197505870e-03 4.7190240820296114e-01 3.9248579229784514e-01  2.6996216661793826e-03 2.8028515555515177e-01 7.4756979388202649e-01  4.3899920825236473e-03 2.7478452997457387e-01 3.1541669307072884e-01  4.7534498635296348e-03 2.0500210609451286e-02 4.3297437691616020e-01  3.7868337781772816e-03 8.5589954135638302e-02 6.6818880995906049e-01  1.8685425486078767e-03 4.5807338360038014e-01 5.2947480693331239e-01  3.2794830397675900e-03 1.8840747993755103e-01 4.4696376530350085e-01  1.6274995173286388e-03 3.1902504512978613e-01 7.2418793120531966e-01  1.8774858240362096e-03 4.5202588810886990e-01 6.8441772008462221e-01  7.9841874922343575e-04 6.5953979493428183e-02 6.9249178147445489e-01  3.7384660739350302e-03 3.9104223769212654e-01 5.2082381208773698e-01  3.2151045424608127e-03 4.4402599590027636e-01 5.5380185587684205e-01  6.5895505396847966e-04 4.4086458849597193e-01 7.2960044098478416e-01  5.4695410891812907e-04 4.2364178509378669e-01 6.9898460780056237e-01  3.8617960186827782e-04 1.7009335915966872e-01 6.0502684213765012e-01  3.7489748540297315e-03 2.1221020451639694e-01 4.9925106374487788e-01  3.5796949231871376e-04 7.1601921477228214e-02 4.1746675451818788e-01  2.2378865214832152e-03 1.4777415304434199e-01 3.2141334088056672e-01  4.9737941324066908e-03 1.8299329374479417e-01 7.2445575448861177e-01  1.8928462612131643e-03 4.4289945898195343e-01 5.1767653641359646e-01  1.8019776868704817e-04 1.7714754130418936e-01 3.3041396292050507e-01  1.7199797844248271e-03 2.4725460344853112e-01 5.6085774587857307e-01  4.1937238220668719e-03 2.4683044481450622e-01 5.8208151406394515e-01  4.9301059250055866e-03 2.0235812728408892e-01 5.9729159852002311e-01  4.4591671456534121e-03 4.9084802287364188e-01 6.2098291947451645e-01  1.4595477072030050e-03 1.8394573946275172e-01 4.9511318450811526e-01  5.1317171382383791e-04 2.0147187452116078e-01 4.8668547641908666e-01  6.0231947849952844e-04 2.7459615532068993e-02 6.0405391246978701e-01  2.0067009630272796e-03 2.4880580277124759e-01 4.5563113865574062e-01  1.3810245186670416e-03 3.4191081394856104e-02 7.3325792260052203e-01  2.5223237196817850e-03 2.1138790909672350e-01 4.1274218169770749e-01  4.0552063754664639e-03 3.6664051881640758e-01 5.2999476718174310e-01  3.4174868895845180e-03 2.8970290200515125e-01 5.9216358483770426e-01  4.4248191779721723e-04 4.8263136873232820e-01 5.7340135882831045e-01  2.5425150218860611e-03 4.6330219967085279e-01 7.0908267825545712e-01  3.6214987550500415e-03 4.5480689099363114e-01 5.8033727487974462e-01  7.3868186694288135e-04 4.9659844378033313e-01 4.8370453906405309e-01  4.3065624256450940e-04 4.9464184306780429e-01 6.0755779668548437e-01  1.0000000000000000e-02 1.0000000000000000e-02 1.0000000000000000e-02  1.0000000000000000e-02 1.0000000000000000e-02 1.0000000000000000e-02  1.0000000000000000e-02 1.0000000000000000e-02 1.0000000000000000e-02  1.0000000000000000e-02 1.0000000000000000e-02 1.0000000000000000e-02  1.0000000000000000e-02 1.0000000000000000e-02 1.0000000000000000e-02  1.0000000000000000e-02 1.0000000000000000e-02 1.0000000000000000e-02  1.0000000000000000e-02 1.0000000000000000e-02 1.0000000000000000e-02  1.0000000000000000e-02 1.0000000000000000e-02 1.0000000000000000e-02  1.0000000000000000e-02 1.0000000000000000e-02 1.0000000000000000e-02  1.0000000000000000e-02 1.0000000000000000e-02 1.0000000000000000e-02  1.0000000000000000e-02 1.0000000000000000e-02 1.0000000000000000e-02  1.0000000000000000e-02 1.0000000000000000e-02 1.0000000000000000e-02  1.0000000000000000e-02 1.0000000000000000e-02 1.0000000000000000e-02  1.0000000000000000e-02 1.0000000000000000e-02 1.0000000000000000e-02  1.0000000000000000e-02 1.0000000000000000e-02 1.0000000000000000e-02  1.0000000000000000e-02 1.0000000000000000e-02 1.0000000000000000e-02  1.0000000000000000e-02 1.0000000000000000e-02 1.0000000000000000e-02  1.0000000000000000e-02 1.0000000000000000e-02 1.0000000000000000e-02  1.0000000000000000e-02 1.0000000000000000e-02 1.0000000000000000e-02  1.0000000000000000e-02 1.0000000000000000e-02 1.0000000000000000e-02  1.0000000000000000e-02 1.0000000000000000e-02 1.0000000000000000e-02  1.0000000000000000e-02 1.0000000000000000e-02 1.0000000000000000e-02  1.0000000000000000e-02 1.0000000000000000e-02 1.0000000000000000e-02  1.0000000000000000e-02 1.0000000000000000e-02 1.0000000000000000e-02  1.0000000000000000e-02 1.0000000000000000e-02 1.0000000000000000e-02  1.0000000000000000e-02 1.0000000000000000e-02 1.0000000000000000e-02  1.0000000000000000e-02 1.0000000000000000e-02 1.0000000000000000e-02  1.0000000000000000e-02 1.0000000000000000e-02 1.0000000000000000e-02  1.0000000000000000e-02 1.0000000000000000e-02 1.0000000000000000e-02  1.0000000000000000e-02 1.0000000000000000e-02 1.0000000000000000e-02  1.0000000000000000e-02 1.0000000000000000e-02 1.0000000000000000e-02  1.0000000000000000e-02 1.0000000000000000e-02 1.0000000000000000e-02  1.0000000000000000e-02 1.0000000000000000e-02 1.0000000000000000e-02  1.0000000000000000e-02 1.0000000000000000e-02 1.0000000000000000e-02  1.0000000000000000e-02 1.0000000000000000e-02 1.0000000000000000e-02  1.0000000000000000e-02 1.0000000000000000e-02 1.0000000000000000e-02  1.0000000000000000e-02 1.0000000000000000e-02 1.0000000000000000e-02  1.0000000000000000e-02 1.0000000000000000e-02 1.0000000000000000e-02  1.0000000000000000e-02 1.0000000000000000e-02 1.0000000000000000e-02  1.0000000000000000e-02 1.0000000000000000e-02 1.0000000000000000e-02  1.0000000000000000e-02 1.0000000000000000e-02 1.0000000000000000e-02  1.0000000000000000e-02 1.0000000000000000e-02 1.0000000000000000e-02  1.0000000000000000e-02 1.0000000000000000e-02 1.0000000000000000e-02  1.0000000000000000e-02 1.0000000000000000e-02 1.0000000000000000e-02  1.0000000000000000e-02 1.0000000000000000e-02 1.0000000000000000e-02  1.0000000000000000e-02 1.0000000000000000e-02 1.0000000000000000e-02  1.0000000000000000e-02 1.0000000000000000e-02 1.0000000000000000e-02  1.0000000000000000e-02 1.0000000000000000e-02 1.0000000000000000e-02  1.0000000000000000e-02 1.0000000000000000e-02 1.0000000000000000e-02  1.0000000000000000e-02 1.0000000000000000e-02 1.0000000000000000e-02  1.0000000000000000e-02 1.0000000000000000e-02 1.0000000000000000e-02  1.0000000000000000e-02 1.0000000000000000e-02 1.0000000000000000e-02  1.0000000000000000e-02 1.0000000000000000e-02 1.0000000000000000e-02  1.0000000000000000e-02 1.0000000000000000e-02 1.0000000000000000e-02  1.0000000000000000e-02 1.0000000000000000e-02 1.0000000000000000e-02  1.0000000000000000e-02 1.0000000000000000e-02 1.0000000000000000e-02  1.0000000000000000e-02 1.0000000000000000e-02 1.0000000000000000e-02  1.0000000000000000e-02 1.0000000000000000e-02 1.0000000000000000e-02  1.0000000000000000e-02 1.0000000000000000e-02 1.0000000000000000e-02  1.0000000000000000e-02 1.0000000000000000e-02 1.0000000000000000e-02  1.0000000000000000e-02 1.0000000000000000e-02 1.0000000000000000e-02  1.0000000000000000e-02 1.0000000000000000e-02 1.0000000000000000e-02  1.0000000000000000e-02 1.0000000000000000e-02 1.0000000000000000e-02  1.0000000000000000e-02 1.0000000000000000e-02 1.0000000000000000e-02  1.0000000000000000e-02 1.0000000000000000e-02 1.0000000000000000e-02  1.0000000000000000e-02 1.0000000000000000e-02 1.0000000000000000e-02  1.0000000000000000e-02 1.0000000000000000e-02 1.0000000000000000e-02  1.0000000000000000e-02 1.0000000000000000e-02 1.0000000000000000e-02  1.0000000000000000e-02 1.0000000000000000e-02 1.0000000000000000e-02  1.0000000000000000e-02 1.0000000000000000e-02 1.0000000000000000e-02  1.0000000000000000e-02 1.0000000000000000e-02 1.0000000000000000e-02  1.0000000000000000e-02 1.0000000000000000e-02 1.0000000000000000e-02  1.0000000000000000e-02 1.0000000000000000e-02 1.0000000000000000e-02  1.0000000000000000e-02 1.0000000000000000e-02 1.0000000000000000e-02  1.0000000000000000e-02 1.0000000000000000e-02 1.0000000000000000e-02  1.0000000000000000e-02 1.0000000000000000e-02 1.0000000000000000e-02  1.0000000000000000e-02 1.0000000000000000e-02 1.0000000000000000e-02  1.0000000000000000e-02 1.0000000000000000e-02 1.0000000000000000e-02  1.0000000000000000e-02 1.0000000000000000e-02 1.0000000000000000e-02  1.0000000000000000e-02 1.0000000000000000e-02 1.0000000000000000e-02  1.0000000000000000e-02 1.0000000000000000e-02 1.0000000000000000e-02  1.0000000000000000e-02 1.0000000000000000e-02 1.0000000000000000e-02  1.0000000000000000e-02 1.0000000000000000e-02 1.0000000000000000e-02  1.0000000000000000e-02 1.0000000000000000e-02 1.0000000000000000e-02  1.0000000000000000e-02 1.0000000000000000e-02 1.0000000000000000e-02  1.0000000000000000e-02 1.0000000000000000e-02 1.0000000000000000e-02  1.0000000000000000e-02 1.0000000000000000e-02 1.0000000000000000e-02  1.0000000000000000e-02 1.0000000000000000e-02 1.0000000000000000e-02  1.0000000000000000e-02 1.0000000000000000e-02 1.0000000000000000e-02  1.0000000000000000e-02 1.0000000000000000e-02 1.0000000000000000e-02  1.0000000000000000e-02 1.0000000000000000e-02 1.0000000000000000e-02  1.0000000000000000e-02 1.0000000000000000e-02 1.0000000000000000e-02  1.0000000000000000e-02 1.0000000000000000e-02 1.0000000000000000e-02  1.0000000000000000e-02 1.0000000000000000e-02 1.0000000000000000e-02  1.0000000000000000e-02 1.0000000000000000e-02 1.0000000000000000e-02  1.0000000000000000e-02 1.0000000000000000e-02 1.0000000000000000e-02  1.0000000000000000e-02 1.0000000000000000e-02 1.0000000000000000e-02  1.0000000000000000e-02 1.0000000000000000e-02 1.0000000000000000e-02  1.0000000000000000e-02 1.0000000000000000e-02 1.0000000000000000e-02  1.0000000000000000e-02 1.0000000000000000e-02 1.0000000000000000e-02  1.0000000000000000e-02 1.0000000000000000e-02 1.0000000000000000e-02  1.0000000000000000e-02 1.0000000000000000e-02 1.0000000000000000e-02  1.0000000000000000e-02 1.0000000000000000e-02 1.0000000000000000e-02  1.0000000000000000e-02 1.0000000000000000e-02 1.0000000000000000e-02  1.0000000000000000e-02 1.0000000000000000e-02 1.0000000000000000e-02  1.0000000000000000e-02 1.0000000000000000e-02 1.0000000000000000e-02  1.0000000000000000e-02 1.0000000000000000e-02 1.0000000000000000e-02  1.0000000000000000e-02 1.0000000000000000e-02 1.0000000000000000e-02  1.0000000000000000e-02 1.0000000000000000e-02 1.0000000000000000e-02  1.0000000000000000e-02 1.0000000000000000e-02 1.0000000000000000e-02  1.0000000000000000e-02 1.0000000000000000e-02 1.0000000000000000e-02  1.0000000000000000e-02 1.0000000000000000e-02 1.0000000000000000e-02  1.0000000000000000e-02 1.0000000000000000e-02 1.0000000000000000e-02  1.0000000000000000e-02 1.0000000000000000e-02 1.0000000000000000e-02  1.0000000000000000e-02 1.0000000000000000e-02 1.0000000000000000e-02  1.0000000000000000e-02 1.0000000000000000e-02 1.0000000000000000e-02  1.0000000000000000e-02 1.0000000000000000e-02 1.0000000000000000e-02  1.0000000000000000e-02 1.0000000000000000e-02 1.0000000000000000e-02  1.0000000000000000e-02 1.0000000000000000e-02 1.0000000000000000e-02  1.0000000000000000e-02 1.0000000000000000e-02 1.0000000000000000e-02  1.0000000000000000e-02 1.0000000000000000e-02 1.0000000000000000e-02  1.0000000000000000e-02 1.0000000000000000e-02 1.0000000000000000e-02  1.0000000000000000e-02 1.0000000000000000e-02 1.0000000000000000e-02  1.0000000000000000e-02 1.0000000000000000e-02 1.0000000000000000e-02  1.0000000000000000e-02 1.0000000000000000e-02 1.0000000000000000e-02  1.0000000000000000e-02 1.0000000000000000e-02 1.0000000000000000e-02  1.0000000000000000e-02 1.0000000000000000e-02 1.0000000000000000e-02  1.0000000000000000e-02 1.0000000000000000e-02 1.0000000000000000e-02  1.0000000000000000e-02 1.0000000000000000e-02 1.0000000000000000e-02  1.0000000000000000e-02 1.0000000000000000e-02 1.0000000000000000e-02  1.0000000000000000e-02 1.0000000000000000e-02 1.0000000000000000e-02  1.0000000000000000e-02 1.0000000000000000e-02 1.0000000000000000e-02  1.0000000000000000e-02 1.0000000000000000e-02 1.0000000000000000e-02  1.0000000000000000e-02 1.0000000000000000e-02 1.0000000000000000e-02  1.0000000000000000e-02 1.0000000000000000e-02 1.0000000000000000e-02  1.0000000000000000e-02 1.0000000000000000e-02 1.0000000000000000e-02  1.0000000000000000e-02 1.0000000000000000e-02 1.0000000000000000e-02  1.0000000000000000e-02 1.0000000000000000e-02 1.0000000000000000e-02  1.0000000000000000e-02 1.0000000000000000e-02 1.0000000000000000e-02  1.0000000000000000e-02 1.0000000000000000e-02 1.0000000000000000e-02  1.0000000000000000e-02 1.0000000000000000e-02 1.0000000000000000e-02  1.0000000000000000e-02 1.0000000000000000e-02 1.0000000000000000e-02  1.0000000000000000e-02 1.0000000000000000e-02 1.0000000000000000e-02  1.0000000000000000e-02 1.0000000000000000e-02 1.0000000000000000e-02  1.0000000000000000e-02 1.0000000000000000e-02 1.0000000000000000e-02  1.0000000000000000e-02 1.0000000000000000e-02 1.0000000000000000e-02  1.0000000000000000e-02 1.0000000000000000e-02 1.0000000000000000e-02  1.0000000000000000e-02 1.0000000000000000e-02 1.0000000000000000e-02  1.0000000000000000e-02 1.0000000000000000e-02 1.0000000000000000e-02  1.0000000000000000e-02 1.0000000000000000e-02 1.0000000000000000e-02  1.0000000000000000e-02 1.0000000000000000e-02 1.0000000000000000e-02  1.0000000000000000e-02 1.0000000000000000e-02 1.0000000000000000e-02  1.0000000000000000e-02 1.0000000000000000e-02 1.0000000000000000e-02  1.0000000000000000e-02 1.0000000000000000e-02 1.0000000000000000e-02  1.0000000000000000e-02 1.0000000000000000e-02 1.0000000000000000e-02  1.0000000000000000e-02 1.0000000000000000e-02 1.0000000000000000e-02  1.0000000000000000e-02 1.0000000000000000e-02 1.0000000000000000e-02  1.0000000000000000e-02 1.0000000000000000e-02 1.0000000000000000e-02  1.0000000000000000e-02 1.0000000000000000e-02 1.0000000000000000e-02  1.0000000000000000e-02 1.0000000000000000e-02 1.0000000000000000e-02  1.0000000000000000e-02 1.0000000000000000e-02 1.0000000000000000e-02  1.0000000000000000e-02 1.0000000000000000e-02 1.0000000000000000e-02  1.0000000000000000e-02 1.0000000000000000e-02 1.0000000000000000e-02  1.0000000000000000e-02 1.0000000000000000e-02 1.0000000000000000e-02  1.0000000000000000e-02 1.0000000000000000e-02 1.0000000000000000e-02  1.0000000000000000e-02 1.0000000000000000e-02 1.0000000000000000e-02  1.0000000000000000e-02 1.0000000000000000e-02 1.0000000000000000e-02  1.0000000000000000e-02 1.0000000000000000e-02 1.0000000000000000e-02  1.0000000000000000e-02 1.0000000000000000e-02 1.0000000000000000e-02  1.0000000000000000e-02 1.0000000000000000e-02 1.0000000000000000e-02  1.0000000000000000e-02 1.0000000000000000e-02 1.0000000000000000e-02  1.0000000000000000e-02 1.0000000000000000e-02 1.0000000000000000e-02  1.0000000000000000e-02 1.0000000000000000e-02 1.0000000000000000e-02  1.0000000000000000e-02 1.0000000000000000e-02 1.0000000000000000e-02  1.0000000000000000e-02 1.0000000000000000e-02 1.0000000000000000e-02  1.0000000000000000e-02 1.0000000000000000e-02 1.0000000000000000e-02  1.0000000000000000e-02 1.0000000000000000e-02 1.0000000000000000e-02  1.0000000000000000e-02 1.0000000000000000e-02 1.0000000000000000e-02  1.0000000000000000e-02 1.0000000000000000e-02 1.0000000000000000e-02  1.0000000000000000e-02 1.0000000000000000e-02 1.0000000000000000e-02  1.0000000000000000e-02 1.0000000000000000e-02 1.0000000000000000e-02  1.0000000000000000e-02 1.0000000000000000e-02 1.0000000000000000e-02  1.0000000000000000e-02 1.0000000000000000e-02 1.0000000000000000e-02  1.0000000000000000e-02 1.0000000000000000e-02 1.0000000000000000e-02  1.0000000000000000e-02 1.0000000000000000e-02 1.0000000000000000e-02  1.0000000000000000e-02 1.0000000000000000e-02 1.0000000000000000e-02  1.0000000000000000e-02 1.0000000000000000e-02 1.0000000000000000e-02  1.0000000000000000e-02 1.0000000000000000e-02 1.0000000000000000e-02  1.0000000000000000e-02 1.0000000000000000e-02 1.0000000000000000e-02  1.0000000000000000e-02 1.0000000000000000e-02 1.0000000000000000e-02  1.0000000000000000e-02 1.0000000000000000e-02 1.0000000000000000e-02  1.0000000000000000e-02 1.0000000000000000e-02 1.0000000000000000e-02  1.0000000000000000e-02 1.0000000000000000e-02 1.0000000000000000e-02  1.0000000000000000e-02 1.0000000000000000e-02 1.0000000000000000e-02  1.0000000000000000e-02 1.0000000000000000e-02 1.0000000000000000e-02  1.0000000000000000e-02 1.0000000000000000e-02 1.0000000000000000e-02  1.0000000000000000e-02 1.0000000000000000e-02 1.0000000000000000e-02  1.0000000000000000e-02 1.0000000000000000e-02 1.0000000000000000e-02  1.0000000000000000e-02 1.0000000000000000e-02 1.0000000000000000e-02  1.0000000000000000e-02 1.0000000000000000e-02 1.0000000000000000e-02  1.0000000000000000e-02 1.0000000000000000e-02 1.0000000000000000e-02  1.0000000000000000e-02 1.0000000000000000e-02 1.0000000000000000e-02  1.0000000000000000e-02 1.0000000000000000e-02 1.0000000000000000e-02  1.0000000000000000e-02 1.0000000000000000e-02 1.0000000000000000e-02  1.0000000000000000e-02 1.0000000000000000e-02 1.0000000000000000e-02  1.0000000000000000e-02 1.0000000000000000e-02 1.0000000000000000e-02  1.0000000000000000e-02 1.0000000000000000e-02 1.0000000000000000e-02  1.0000000000000000e-02 1.0000000000000000e-02 1.0000000000000000e-02  1.0000000000000000e-02 1.0000000000000000e-02 1.0000000000000000e-02  1.0000000000000000e-02 1.0000000000000000e-02 1.0000000000000000e-02  1.0000000000000000e-02 1.0000000000000000e-02 1.0000000000000000e-02  1.0000000000000000e-02 1.0000000000000000e-02 1.0000000000000000e-02  1.0000000000000000e-02 1.0000000000000000e-02 1.0000000000000000e-02  1.0000000000000000e-02 1.0000000000000000e-02 1.0000000000000000e-02  1.0000000000000000e-02 1.0000000000000000e-02 1.0000000000000000e-02  1.0000000000000000e-02 1.0000000000000000e-02 1.0000000000000000e-02  1.0000000000000000e-02 1.0000000000000000e-02 1.0000000000000000e-02  1.0000000000000000e-02 1.0000000000000000e-02 1.0000000000000000e-02  1.0000000000000000e-02 1.0000000000000000e-02 1.0000000000000000e-02  1.0000000000000000e-02 1.0000000000000000e-02 1.0000000000000000e-02  1.0000000000000000e-02 1.0000000000000000e-02 1.0000000000000000e-02  1.0000000000000000e-02 1.0000000000000000e-02 1.0000000000000000e-02  1.0000000000000000e-02 1.0000000000000000e-02 1.0000000000000000e-02  1.0000000000000000e-02 1.0000000000000000e-02 1.0000000000000000e-02  1.0000000000000000e-02 1.0000000000000000e-02 1.0000000000000000e-02  1.0000000000000000e-02 1.0000000000000000e-02 1.0000000000000000e-02  1.0000000000000000e-02 1.0000000000000000e-02 1.0000000000000000e-02  1.0000000000000000e-02 1.0000000000000000e-02 1.0000000000000000e-02  1.0000000000000000e-02 1.0000000000000000e-02 1.0000000000000000e-02  2.8425500125217988e-03 1.4585322245992310e-01 4.7641971859247739e-01  2.8379357101447605e-03 8.3252025390196938e-02 6.1153937082861032e-01  1.6076991729526246e-03 3.6209885873322356e-01 7.4431224569222076e-01  6.3272147545