<?xml version="1.0"?>
<VTKFile type="UnstructuredGrid"  version="0.1"  >
<UnstructuredGrid>
<Piece  NumberOfPoints="26111" NumberOfCells="51284">
<Points>
<DataArray  type="Float64"  NumberOfComponents="3"  format="ascii">239.8 188 0  250.2 180 0  258.2 172.4 0  257 169.4 0  259.9 157.4 0  258.7 150.3 0  261 143.5 0  251.7 144.4 0  250 138.7 0  247 138.1 0  245.2 130.8 0  247.3 126.4 0  242.7 118.6 0  231.2 107.7 0  226 102.4 0  226.5 93.90000000000001 0  224.5 91.19999999999999 0  224.5 84.09999999999999 0  234.5 73.80000000000001 0  228.4 68.90000000000001 0  230 70 0  233.4 68 0  222.7 61.5 0  220.6 45.5 0  223.4 49.40000000000001 0  224 47 0  221.8 43.09999999999999 0  221 38.40000000000001 0  219.5 38.5 0  219.4 41.69999999999999 0  217.1 36.90000000000001 0  209.7 36 0  209.5 31.69999999999999 0  205.1 29.90000000000001 0  201.5 30.40000000000001 0  199.2 38.69999999999999 0  201.8 41.40000000000001 0  194.8 53.80000000000001 0  196.1 57.69999999999999 0  193 59 0  191.4 66.09999999999999 0  193.5 66.5 0  194.1 64.40000000000001 0  195.6 64.69999999999999 0  195.4 72.40000000000001 0  199.5 77.30000000000001 0  197.7 86.90000000000001 0  200.6 87.5 0  201.5 91 0  198 94.80000000000001 0  198.6 100 0  197.3 105.4 0  198 109.5 0  197 112.7 0  198.3 116.1 0  201.3 122 0  207.2 121 0  208.1 126.7 0  205.6 127.9 0  209.1 134.9 0  210.9 144.4 0  210.1 147.9 0  213 148.4 0  215.4 149.3 0  215.1 152.8 0  219.9 159.7 0  220.3 163.2 0  218.7 164.9 0  219.9 166.7 0  221.9 169.7 0  220 170.3 0  224.9 174.7 0  229.8 177.4 0  229.7 181 0  228 172.9 0  239 178 0  240.4 180 0  239 181.5 0  241.2 185.9 0  242.95 187.99 0  240.2683998954481 187.9985130162049 0  240.8064499792029 187.996804920701 0  241.4245072212198 187.9948428342184 0  242.1344685938113 187.9925889885911 0  243.6047967303995 187.2683688447046 0  244.2300238016934 186.5793254930303 0  244.8270167459974 185.9213980964801 0  245.3970504076993 185.2931816886183 0  245.9413423691472 184.693334409726 0  246.4610548009146 184.1205754676817 0  246.9572980162405 183.5736812207225 0  247.4311315258271 183.051484014985 0  247.8835676021671 182.5528682563703 0  248.3155723408242 182.07676924094 0  248.728068439607 181.6221700920744 0  249.1219369108593 181.1880998734116 0  249.4980188478629 180.7736316421483 0  249.8571175669105 180.377880088329 0  250.547826086972 179.6695652173766 0  250.895652173944 179.3391304347532 0  251.2434782609215 179.0086956521245 0  251.5913043478991 178.6782608694958 0  251.9391304348711 178.3478260868724 0  252.2869565218431 178.017391304249 0  252.6347826088151 177.6869565216256 0  252.9826086957927 177.3565217389969 0  253.3304347827705 177.0260869563681 0  253.6782608697478 176.6956521737396 0  254.0260869567192 176.3652173911168 0  254.3739130436896 176.0347826084949 0  254.721739130661 175.704347825872 0  255.0695652176383 175.3739130432436 0  255.4173913046161 175.0434782606147 0  255.7652173915936 174.713043477986 0  256.113043478541 174.382608695386 0  256.4608695654481 174.0521739128243 0  256.8086956523607 173.7217391302573 0  257.1565217392733 173.3913043476904 0  257.5043478261859 173.0608695651234 0  257.8521739130929 172.7304347825617 0  258.0285714285786 171.9714285714466 0  257.8571428571497 171.5428571428741 0  257.6857142857176 171.1142857142939 0  257.5142857142855 170.6857142857137 0  257.3428571428534 170.2571428571335 0  257.1714285714214 169.8285714285533 0  257.1160000000011 168.9199999999954 0  257.232000000001 168.4399999999959 0  257.3480000000009 167.9599999999964 0  257.4640000000007 167.4799999999969 0  257.5800000000006 166.9999999999974 0  257.6960000000005 166.5199999999979 0  257.8120000000004 166.0399999999985 0  257.9280000000002 165.559999999999 0  258.044 165.0799999999997 0  258.1599999999999 164.6000000000005 0  258.2759999999997 164.1200000000013 0  258.3919999999995 163.6400000000021 0  258.5080000000005 163.1599999999978 0  258.6240000000003 162.6799999999987 0  258.7400000000001 162.1999999999995 0  258.8559999999999 161.7200000000003 0  258.9719999999998 161.240000000001 0  259.0879999999996 160.7600000000015 0  259.2039999999995 160.280000000002 0  259.3199999999994 159.8000000000025 0  259.4359999999992 159.320000000003 0  259.5519999999991 158.8400000000035 0  259.667999999999 158.360000000004 0  259.7839999999989 157.8800000000045 0  259.8200000000007 156.9266666666707 0  259.7400000000017 156.4533333333432 0  259.660000000002 155.980000000012 0  259.580000000001 155.5066666666725 0  259.5000000000012 155.0333333333406 0  259.4200000000022 154.560000000013 0  259.3400000000019 154.0866666666782 0  259.2600000000017 153.6133333333434 0  259.1800000000014 153.1400000000086 0  259.1000000000006 152.6666666666702 0  259.0200000000008 152.1933333333383 0  258.9399999999998 151.7199999999988 0  258.8599999999983 151.2466666666568 0  258.7799999999993 150.7733333333293 0  258.8533333333361 149.8466666666585 0  259.0066666666722 149.3933333333169 0  259.160000000005 148.9399999999853 0  259.3133333333344 148.4866666666637 0  259.4666666666643 148.0333333333404 0  259.6199999999965 147.5800000000104 0  259.7733333333283 147.1266666666815 0  259.9266666666616 146.6733333333484 0  260.0799999999934 146.2200000000195 0  260.233333333329 145.7666666666796 0  260.3866666666589 145.3133333333563 0  260.5399999999917 144.8600000000247 0  260.6933333333278 144.4066666666831 0  260.8466666666639 143.9533333333416 0  260.5105263158154 143.5473684210501 0  260.0210526316203 143.5947368421013 0  259.5315789474334 143.6421052631516 0  259.0421052632076 143.6894736842057 0  258.5526315789895 143.7368421052591 0  258.0631578947787 143.7842105263117 0  257.573684210553 143.8315789473658 0  257.0842105263371 143.878947368419 0  256.5947368421236 143.9263157894719 0  256.1052631578984 143.973684210526 0  255.6157894736727 144.0210526315801 0  255.1263157894516 144.0684210526337 0  254.6368421052409 144.1157894736863 0  254.1473684210308 144.1631578947389 0  253.6578947368314 144.2105263157905 0  253.1684210526315 144.2578947368421 0  252.6789473684208 144.3052631578947 0  252.1894736842217 144.3526315789463 0  251.5583333333298 143.9249999999882 0  251.4166666666658 143.4499999999971 0  251.2750000000023 142.9750000000076 0  251.1333333333388 142.5000000000182 0  250.9916666666717 142.0250000000168 0  250.8500000000015 141.5500000000051 0  250.7083333333314 141.0749999999933 0  250.5666666666612 140.5999999999818 0  250.4249999999977 140.1249999999923 0  250.2833333333342 139.6500000000029 0  250.1416666666702 139.1750000000117 0  249.5714285714283 138.6142857142856 0  249.142857142857 138.5285714285714 0  248.7142857142871 138.4428571428574 0  248.285714285715 138.357142857143 0  247.857142857143 138.2714285714286 0  247.4285714285717 138.1857142857144 0  246.8874999999995 137.6437499999979 0  246.7750000000005 137.1875000000023 0  246.662500000001 136.7312500000041 0  246.5500000000021 136.2750000000085 0  246.4375000000032 135.8187500000129 0  246.3250000000036 135.3625000000147 0  246.2125000000047 134.9062500000191 0  246.1000000000042 134.450000000017 0  245.9875000000011 133.9937500000044 0  245.8750000000022 133.5375000000088 0  245.7625000000026 133.0812500000106 0  245.650000000003 132.6250000000124 0  245.5375000000041 132.1687500000168 0  245.4250000000046 131.7125000000187 0  245.3125000000031 131.2562500000126 0  245.4099999999997 130.3600000000006 0  245.619999999996 129.9200000000084 0  245.8300000000029 129.4799999999939 0  246.0399999999992 129.0400000000017 0  246.2499999999989 128.6000000000023 0  246.4599999999987 128.1600000000028 0  246.6699999999966 127.720000000007 0  246.8800000000001 127.2799999999997 0  247.0899999999962 126.840000000008 0  247.0578947368415 125.9894736842094 0  246.815789473683 125.578947368419 0  246.5736842105246 125.1684210526286 0  246.3315789473688 124.7578947368428 0  246.0894736842088 124.3473684210496 0  245.847368421051 123.9368421052603 0  245.6052631578944 123.5263157894731 0  245.3631578947421 123.1157894736931 0  245.121052631583 122.7052631579015 0  244.8789473684243 122.2947368421108 0  244.6368421052652 121.8842105263193 0  244.3947368421094 121.4736842105334 0  244.1526315789515 121.0631578947438 0  243.9105263157933 120.6526315789539 0  243.6684210526312 120.2421052631572 0  243.4263157894754 119.8315789473714 0  243.184210526317 119.421052631581 0  242.9421052631585 119.0105263157906 0  242.3406250000005 118.2593750000005 0  241.9812499999996 117.9187499999997 0  241.6218750000002 117.5781250000002 0  241.2625000000007 117.2375000000007 0  240.9031250000012 116.8968750000012 0  240.5437500000017 116.5562500000017 0  240.1843750000022 116.2156250000021 0  239.8250000000041 115.875000000004 0  239.4656250000061 115.5343750000058 0  239.1062500000066 115.1937500000063 0  238.7468750000071 114.8531250000068 0  238.3875000000076 114.5125000000072 0  238.0281250000081 114.1718750000077 0  237.6687500000087 113.8312500000082 0  237.3093750000078 113.4906250000074 0  236.9500000000083 113.1500000000079 0  236.5906250000088 112.8093750000084 0  236.231250000008 112.4687500000076 0  235.8718750000085 112.1281250000081 0  235.512500000009 111.7875000000085 0  235.1531250000068 111.4468750000064 0  234.7937500000045 111.1062500000043 0  234.4343750000036 110.7656250000035 0  234.0750000000042 110.4250000000039 0  233.7156250000061 110.0843750000057 0  233.3562500000066 109.7437500000062 0  232.9968750000043 109.4031250000041 0  232.6375000000021 109.062500000002 0  232.2781250000026 108.7218750000025 0  231.9187500000031 108.381250000003 0  231.5593750000022 108.0406250000021 0  230.8533333333311 107.3466666666643 0  230.5066666666661 106.9933333333328 0  230.1599999999976 106.6399999999975 0  229.8133333333373 106.2866666666707 0  229.4666666666717 105.9333333333385 0  229.1200000000069 105.580000000007 0  228.7733333333389 105.2266666666724 0  228.4266666666694 104.8733333333361 0  228.0800000000003 104.5200000000003 0  227.7333333333338 104.1666666666672 0  
[...]
<PointData  Vectors="f_17"> 
<DataArray  type="Float64"  Name="f_17"  NumberOfComponents="3" format="ascii">6.4799300017701433e-01 6.5742614133227184e-01 5.5219817522177073e-01  6.4889059686215955e-01 6.4722506586885686e-01 5.6632531108844608e-01  6.4966223660938438e-01 6.3678400695944437e-01 5.8046992796587860e-01  6.4990034627236060e-01 6.3195562927915727e-01 5.8685546873742156e-01  6.5085317186001723e-01 6.0304655735859813e-01 6.2382272076081180e-01  6.5089676170336486e-01 5.8693734999039726e-01 6.4337008503205173e-01  6.5092656503214230e-01 5.8240792558134813e-01 6.4877331371994740e-01  6.5001382821524167e-01 5.6117441054294881e-01 6.7292430494905753e-01  6.4864743443031148e-01 5.3493369398627766e-01 7.0132322339846331e-01  6.4783126043832506e-01 5.2344637331971366e-01 7.1307971338851528e-01  6.4486268935085700e-01 4.8887690523546651e-01 7.4637978438189334e-01  6.4391631240483804e-01 4.7956496694571932e-01 7.5476043148959926e-01  6.4260470182390628e-01 4.6829716858780268e-01 7.6450436232670405e-01  6.4023073649409934e-01 4.4996985009650364e-01 7.7950217896880436e-01  6.4014233285771949e-01 4.4936487997469171e-01 7.7997570242393610e-01  6.4144852844525935e-01 4.5935690261405487e-01 7.7193774976509411e-01  6.4223868640600890e-01 4.6577937066530201e-01 7.6659360107404340e-01  6.4507269827438019e-01 4.9061983500301015e-01 7.4478679511695145e-01  6.4764981010863876e-01 5.1619891757468306e-01 7.2051683380353015e-01  6.4793721413257410e-01 5.1989312030852264e-01 7.1683952143213736e-01  6.4784911257895195e-01 5.1869379361124734e-01 7.1803913855812296e-01  6.4792089230519523e-01 5.1945394032048564e-01 7.1728542660658445e-01  6.4910031396076362e-01 5.3658444747791090e-01 6.9974951753769687e-01  6.5032304272658681e-01 5.5877382721397928e-01 6.7587744646683789e-01  6.5013912558772169e-01 5.5466960474142835e-01 6.8039810073933071e-01  6.5036460317611200e-01 5.5971525769661734e-01 6.7483570691299322e-01  6.5037228540297609e-01 5.5992258036363041e-01 6.7460521974711674e-01  6.5040506466428960e-01 5.6070533587565863e-01 6.7373568140324791e-01  6.5040507654917912e-01 5.6070575714807180e-01 6.7373521153624016e-01  6.5039187739764859e-01 5.6041886118297435e-01 6.7405371146454529e-01  6.5044248030447094e-01 5.6176397844608872e-01 6.7255529995374286e-01  6.5049102882351550e-01 5.6320892281866808e-01 6.7093892447671644e-01  6.5052636405030440e-01 5.6425397783725528e-01 6.6976708787098294e-01  6.5053397069443519e-01 5.6448559458947123e-01 6.6950691600187462e-01  6.5053414360469197e-01 5.6449334998115952e-01 6.6949817999321726e-01  6.5049406281190292e-01 5.6334558395542766e-01 6.7078562418635435e-01  6.5042879862296266e-01 5.6158488124781059e-01 6.7275259134497800e-01  6.4994650713485902e-01 5.5061706318988546e-01 6.8482146455054127e-01  6.4968487341845060e-01 5.4579631991112998e-01 6.9001526250839051e-01  6.4952802136298582e-01 5.4296899736055149e-01 6.9303910066402230e-01  6.4881186401908786e-01 5.3188448673766653e-01 7.0465743282046511e-01  6.4882082131458141e-01 5.3207869451780054e-01 7.0445461201361903e-01  6.4929156328040549e-01 5.3920389885259978e-01 6.9702029739921845e-01  6.4912630366826718e-01 5.3671507416767206e-01 6.9962622208283232e-01  6.4830014109168321e-01 5.2540336208918181e-01 7.1127439516200175e-01  6.4668030438407575e-01 5.0698481085771774e-01 7.2943425519319272e-01  6.4428323896840078e-01 4.8312484359203828e-01 7.5159029170538272e-01  6.4375975255243834e-01 4.7866262417662991e-01 7.5552050545966909e-01  6.4192374844503364e-01 4.6349845338925244e-01 7.6848301256801421e-01  6.4041677471576341e-01 4.5170648741220859e-01 7.7811165846843011e-01  6.3949326609911950e-01 4.4492089973760213e-01 7.8343377157256555e-01  6.3860166955479303e-01 4.3860997967056919e-01 7.8825535091618160e-01  6.3819011125983527e-01 4.3577912765798588e-01 7.9037380740901553e-01  6.3798156866238176e-01 4.3436284662512764e-01 7.9142428721812297e-01  6.3792280098170195e-01 4.3396922313720870e-01 7.9171500091353109e-01  6.3799714734981761e-01 4.3448513283739704e-01 7.9133430430665763e-01  6.3876650392711287e-01 4.3979703576869844e-01 7.8735570130256882e-01  6.4035576849102527e-01 4.5116228326300567e-01 7.7855548206382930e-01  6.4063891713827281e-01 4.5323285608744351e-01 7.7691264085837874e-01  6.4196786996987198e-01 4.6358262554690494e-01 7.6845573724779548e-01  6.4454476114126968e-01 4.8561463867276372e-01 7.4936999527189341e-01  6.4493555781678691e-01 4.8922984425430266e-01 7.4610457156818877e-01  6.4521073015558428e-01 4.9209199896153333e-01 7.4347090788822223e-01  6.4612615723230704e-01 5.0193881808917318e-01 7.3422934406110951e-01  6.4724444328290476e-01 5.1477327282614427e-01 7.2183039853255848e-01  6.4936074014785916e-01 5.4711799530510807e-01 6.8837951270690212e-01  6.5025893152377123e-01 5.6577129209025900e-01 6.6783447682464947e-01  6.5048708388941590e-01 5.7113425430298093e-01 6.6177695700860151e-01  6.5059899033765967e-01 5.7458937082276174e-01 6.5780900565978950e-01  6.5076163500368622e-01 5.8132609233008659e-01 6.4997567306850934e-01  6.5074314676375722e-01 5.7941701461644723e-01 6.5222391608799923e-01  6.5086913476994934e-01 5.9181895379181249e-01 6.3751241217335120e-01  6.5055213428343683e-01 6.1635161446393816e-01 6.0711210921510861e-01  6.5051234981288408e-01 6.1930173575933745e-01 6.0337111340661087e-01  6.5078234393147816e-01 5.9869599917804994e-01 6.2910464043122649e-01  6.4967491576426817e-01 6.3299895887291735e-01 5.8536061733688793e-01  6.4884030363734302e-01 6.4607966349348434e-01 5.6779232344746544e-01  6.4851030291053158e-01 6.5075521406854586e-01 5.6141895848932366e-01  6.4809095088295710e-01 6.5624654363887203e-01 5.5383857506903300e-01  6.4803123468612212e-01 6.5699131526204846e-01 5.5280470658145897e-01  6.4799487949453194e-01 6.5740415976709654e-01 5.5222880487989845e-01  6.4800041009099152e-01 6.5734000488272271e-01 5.5231823127315938e-01  6.4800918196136637e-01 6.5723950041830803e-01 5.5245839388015749e-01  6.4802057404743973e-01 6.5711070506191294e-01 5.5263809111194595e-01  6.4806045784494726e-01 6.5665557149062292e-01 5.5327249079720509e-01  6.4810776435964779e-01 6.5611434157118720e-01 5.5402627935540905e-01  6.4816446197774436e-01 6.5546907980075864e-01 5.5492440722433600e-01  6.4822684186462043e-01 6.5476125597828305e-01 5.5590879999441389e-01  6.4829235379475525e-01 6.5402060120379113e-01 5.5693791898082079e-01  6.4835917397039666e-01 6.5326697801599420e-01 5.5798400961005179e-01  6.4842619181582206e-01 6.5251165423122659e-01 5.5903131330026268e-01  6.4849217103055357e-01 6.5176813260890942e-01 5.6006110745090609e-01  6.4855612363989001e-01 6.5104773369202584e-01 5.6105778581829435e-01  6.4861792638055538e-01 6.5034983939858781e-01 5.6202220700505556e-01  6.4867722460749011e-01 6.4967802667324059e-01 5.6294950009980627e-01  6.4873399583019853e-01 6.4903153855947004e-01 5.6384075776430342e-01  6.4878832140248610e-01 6.4840887805141834e-01 5.6469812331240665e-01  6.4884023241212485e-01 6.4781016885356191e-01 5.6552154419252676e-01  6.4893709561668211e-01 6.4668165693663515e-01 5.6707101103341595e-01  6.4898162355179534e-01 6.4615650316653961e-01 5.6779082094320021e-01  6.4902494788369303e-01 6.4564012135551008e-01 5.6849774713826784e-01  6.4906740392240303e-01 6.4512778469765042e-01 5.6919824838925048e-01  6.4910901998406911e-01 6.4461894324247793e-01 5.6989307219259100e-01  6.4914990073588219e-01 6.4411180394849121e-01 5.7058465405207115e-01  6.4919000367733326e-01 6.4360685118865046e-01 5.7127233699466362e-01  6.4922942248571036e-01 6.4310230253765688e-01 5.7195852855097107e-01  6.4926805072062610e-01 6.4259963410106946e-01 5.7264122881065260e-01  6.4930597660565326e-01 6.4209715357349784e-01 5.7332272344678847e-01  6.4934309373026655e-01 6.4159632484648688e-01 5.7400103408266290e-01  6.4937929317450460e-01 6.4109881356322407e-01 5.7467392815246798e-01  6.4941449494193226e-01 6.4060577996096535e-01 5.7533985539825294e-01  6.4944861099466378e-01 6.4011855240348803e-01 5.7599704764575688e-01  6.4948153171437062e-01 6.3963888775506006e-01 5.7664316967788287e-01  6.4951305749397092e-01 6.3917012338795987e-01 5.7727377237751243e-01  6.4954297323183818e-01 6.3871600567109310e-01 5.7788387676097186e-01  6.4957103705714403e-01 6.3828090184153996e-01 5.7846769118659458e-01  6.4959680782107809e-01 6.3787282147262669e-01 5.7901457006156998e-01  6.4961981719466566e-01 6.3750048620229116e-01 5.7951294734404279e-01  6.4963921742085207e-01 6.3717963816033074e-01 5.7994191556570440e-01  6.4965438581361645e-01 6.3692142243926264e-01 5.8028667529629052e-01  6.4967063684292203e-01 6.3662373624554780e-01 5.8068295664999303e-01  6.4968872883252282e-01 6.3627271626801185e-01 5.8114911731248664e-01  6.4971440555311999e-01 6.3576679979145534e-01 5.8182026751385985e-01  6.4974713877433332e-01 6.3511261989326073e-01 5.8268702550437779e-01  6.4978684185275626e-01 6.3430762022431109e-01 5.8375208021705094e-01  6.4983563732697935e-01 6.3330396788575105e-01 5.8507772685246162e-01  6.4997338314616371e-01 6.3040970989854128e-01 5.8888927623488785e-01  6.5003456070415921e-01 6.2908876412902737e-01 5.9062285725338870e-01  6.5009182647072228e-01 6.2782336673907946e-01 5.9227943209320055e-01  6.5014655060399373e-01 6.2658289774453135e-01 5.9389924337008471e-01  6.5019940039263702e-01 6.2535163367301050e-01 5.9550294134668236e-01  6.5025044508184782e-01 6.2412786326283043e-01 5.9709278959883927e-01  6.5029979603845989e-01 6.2290840502742195e-01 5.9867298637048760e-01  6.5034740245489353e-01 6.2169383718841686e-01 6.0024276774368523e-01  6.5039330008659402e-01 6.2048186506297431e-01 6.0180512098236427e-01  6.5043744072009857e-01 6.1927325302942460e-01 6.0335908844144592e-01  6.5047971728371212e-01 6.1807086150320700e-01 6.0490101271915120e-01  6.5052011886174232e-01 6.1687492204921723e-01 6.0643068753163354e-01  6.5055855228581838e-01 6.1568827256359815e-01 6.0794451977101849e-01  6.5059502822603366e-01 6.1450866930199866e-01 6.0944541029120236e-01  6.5062948636144391e-01 6.1334065245242442e-01 6.1092774140663453e-01  6.5066188001976077e-01 6.1218542493605477e-01 6.1239004984408085e-01  6.5069217378355348e-01 6.1104512381704346e-01 6.1382975367968451e-01  6.5072031920483731e-01 6.0992430950629972e-01 6.1524125925121287e-01  6.5074637234132005e-01 6.0881991451065165e-01 6.1662860624827776e-01  6.5077018942875886e-01 6.0774176350242948e-01 6.1797957146317162e-01  6.5079180578791451e-01 6.0668889314550989e-01 6.1929559374936305e-01  6.5081113838663518e-01 6.0567337164777246e-01 6.2056189576602649e-01  6.5082808972756900e-01 6.0470370794199813e-01 6.2176813237227979e-01  6.5084248938150857e-01 6.0379494915044496e-01 6.2289597109168160e-01  6.5086227729132995e-01 6.0229612972936886e-01 6.2474948815887943e-01  6.5087185710177053e-01 6.0139080270069045e-01 6.2586508946050023e-01  6.5088079289160583e-01 6.0040848405342262e-01 6.2707280083161643e-01  6.5088881711038782e-01 5.9937683200715797e-01 6.2833823349212459e-01  6.5089548555586740e-01 5.9830696349515267e-01 6.2964726523048298e-01  6.5090098772508631e-01 5.9721254107617416e-01 6.3098311562570453e-01  6.5090516830944678e-01 5.9609992370099907e-01 6.3233783278684463e-01  6.5090801040776403e-01 5.9497529397092774e-01 6.3370373731251628e-01  6.5090952296172555e-01 5.9384357449722447e-01 6.3507478277705953e-01  6.5090974624650277e-01 5.9270914810923570e-01 6.3644562487053113e-01  6.5090881147476709e-01 5.9157630322605081e-01 6.3781117279000810e-01  6.5090684091578266e-01 5.9044683403985254e-01 6.3916934126979630e-01  6.5090402433811279e-01 5.8931924925272727e-01 6.4052202583789153e-01  6.5090059742268680e-01 5.8817619695028511e-01 6.4189019181256568e-01  6.5089488071259582e-01 5.8586269652108980e-01 6.4465222949139589e-01  6.5089434969290372e-01 5.8507238006561058e-01 6.4559402133766153e-01  6.5089464102077788e-01 5.8442946030942755e-01 6.4635943409044161e-01  6.5089580280306303e-01 5.8390799416836447e-01 6.4697992366920576e-01  6.5089761136496349e-01 5.8348210227967712e-01 6.4748656449058928e-01  6.5090030658376608e-01 5.8314919693198275e-01 6.4788285710226812e-01  6.5090312958626484e-01 5.8288032922356092e-01 6.4820297001389737e-01  6.5090665313424512e-01 5.8268660288754104e-01 6.4843418196010549e-01  6.5091035760572236e-01 5.8254762664208215e-01 6.4860051259590767e-01  6.5091411323789727e-01 5.8245674726912700e-01 6.4870984845973145e-01  6.5091780673572119e-01 5.8240737004507503e-01 6.4876999059863338e-01  6.5092120699302458e-01 5.8238955204584220e-01 6.4879262880350841e-01  6.5092398773003635e-01 5.8239116904708499e-01 6.4879197695294910e-01  6.5092588438553001e-01 5.8240145039989555e-01 6.4878066838958737e-01  6.5092561997655773e-01 5.8239239714637159e-01 6.4879126004537746e-01  6.5092236075166243e-01 5.8233262089608684e-01 6.4886050724737832e-01  6.5091646052403795e-01 5.8221599181415695e-01 6.4899579304194410e-01  6.5090759973913825e-01 5.8203049709075394e-01 6.4921112393322356e-01  6.5089547989122576e-01 5.8176496985911619e-01 6.4951946401320870e-01  6.5087984921882036e-01 5.8141205455099865e-01 6.4992923033507111e-01  6.5086036458308694e-01 5.8095966110802477e-01 6.5045430358759981e-01  6.5083677040706822e-01 5.8040158434849931e-01 6.5110155521704494e-01  6.5080875734590482e-01 5.7973204745241680e-01 6.5187719904455876e-01  6.5077580692142523e-01 5.7893620116745126e-01 6.5279786617214264e-01  6.5073746950389300e-01 5.7800487485089502e-01 6.5387334830757493e-01  6.5069324364821812e-01 5.7692958442808473e-01 6.5511237562758429e-01  6.5064235339560639e-01 5.7569519076090092e-01 6.5653104560024933e-01  6.5058367365452663e-01 5.7427939111541970e-01 6.5815321622677114e-01  6.5051557759405843e-01 5.7265065143503424e-01 6.6001261926591281e-01  6.5043555966005218e-01 5.7075928265883813e-01 6.6216274974037459e-01  6.5033885443561124e-01 5.6850791047837124e-01 6.6470949053272654e-01  6.5021228816805554e-01 5.6561601268540973e-01 6.6796148492975294e-01  6.4979254801087227e-01 5.5635819482326343e-01 6.7826531859838624e-01  6.4963318084714738e-01 5.5300251310465598e-01 6.8195873401336049e-01  6.4949375624425321e-01 5.5016392160347605e-01 6.8506053392167010e-01  6.4936478919322682e-01 5.4762215954963411e-01 6.8781953861135070e-01  6.4924352662098006e-01 5.4530706653940775e-01 6.9031675745453747e-01  6.4912839062888039e-01 5.4317223550361105e-01 6.9260669582573664e-01  6.4901998966840790e-01 5.4121990742692783e-01 6.9468961980345023e-01  6.4891883838893338e-01 5.3944674401001058e-01 6.9657229670402376e-01  6.4882681770871009e-01 5.3787485493586162e-01 6.9823389294100746e-01  6.4874677423394678e-01 5.3654023189906574e-01 6.9963915588052428e-01  6.4868311339275664e-01 5.3550240394462123e-01 7.0072822999053230e-01  6.4861742184772608e-01 5.3447910637798546e-01 7.0179593288964215e-01  6.4855919292968944e-01 5.3361302489218532e-01 7.0269406732303019e-01  6.4847902097573840e-01 5.3244059596527948e-01 7.0390601790280904e-01  6.4837710941198223e-01 5.3097582742756011e-01 7.0541433418726784e-01  6.4824988173370224e-01 5.2917965571641523e-01 7.0725545779369459e-01  6.4808462814961232e-01 5.2688982607536228e-01 7.0959002316681197e-01  6.4753624657307385e-01 5.1953026162084592e-01 7.1702006271186303e-01  6.4731281842220056e-01 5.1663441112794706e-01 7.1991161923183866e-01  6.4711271638227619e-01 5.1409915639915804e-01 7.2242424649245784e-01  6.4692465223912110e-01 5.1176702626700910e-01 7.2471905261276692e-01  6.4674405433508575e-01 5.0957212826567888e-01 7.2686411815508056e-01  6.4656872301038670e-01 5.0748116847614155e-01 7.2889432077845173e-01  6.4639755807749255e-01 5.0547682126304350e-01 7.3082807962840290e-01  6.4622961680399293e-01 5.0354418140127133e-01 7.3268118691931949e-01  6.4606415584729082e-01 5.0167149220408580e-01 7.3446607088614813e-01  6.4590053967209371e-01 4.9984916923863493e-01 7.3619273753666215e-01  6.4573803781649097e-01 4.9806637018175098e-01 7.3787238962276469e-01  6.4557585502931936e-01 4.9631372155361753e-01 7.3951412087437407e-01  6.4541274730194076e-01 4.9457599335824531e-01 7.4113275461592054e-01  6.4524642052415071e-01 4.9282828333117978e-01 7.4275154764361551e-01  6.4507103870079552e-01 4.9100984679681331e-01 7.4442635725098882e-01  6.4466489330135734e-01 4.8687523522909726e-01 7.4820313510518577e-01  6.4451893385628323e-01 4.8541355476987935e-01 7.4952791097638982e-01  6.4439686599941937e-01 4.8420294893933707e-01 7.5062014427956014e-01  6.4429087523932926e-01 4.8316130668279900e-01 7.5155615676952026e-01  6.4419703562691399e-01 4.8224683822355696e-01 7.5237505877293942e-01  6.4411598102057732e-01 4.8146302142884800e-01 7.5307478840887243e-01  6.4404573178400970e-01 4.8078949472211474e-01 7.5367435776722558e-01  6.4398763898270572e-01 4.8023645402397103e-01 7.5416556832551862e-01  6.4394253116587119e-01 4.7981038415953481e-01 7.5454326205507249e-01  6.4389150810197771e-01 4.7933729336039604e-01 7.5496130874879808e-01  6.4384965367102320e-01 4.7895656358357885e-01 7.5529668418489293e-01  6.4379767839794066e-01 4.7848738500604182e-01 7.5570928254836278e-01  6.4373820261427872e-01 4.7795430037431830e-01 7.5617724323428459e-01  6.4367317399240453e-01 4.7737552553596285e-01 7.5668433425110793e-01  6.4360364506890999e-01 4.7676098165984437e-01 7.5722163133183651e-01  6.4353075407528904e-01 4.7612107807165199e-01 7.5777989472940332e-01  6.4345525533975723e-01 4.7546267908390866e-01 7.5835300883069201e-01  6.4337761479983802e-01 4.7478993488049792e-01 7.5893724378963434e-01  6.4329839879430761e-01 4.7410783921917465e-01 7.5952818425955759e-01  6.4321816375264140e-01 4.7342119078351852e-01 7.6012164080163824e-01  6.4313737132200344e-01 4.7273388916499037e-01 7.6071422031698277e-01  6.4305644508899329e-01 4.7204941148186158e-01 7.6130291891216051e-01  6.4297582504516881e-01 4.7137134840535938e-01 7.6188468595119430e-01  6.4289599898803074e-01 4.7070363205503746e-01 7.6245618955868832e-01  6.4281755928644890e-01 4.7005098012726332e-01 7.6301346399721337e-01  6.4274133955509516e-01 4.6942004531958825e-01 7.6355094450883065e-01  6.4266892558038324e-01 4.6882358907011268e-01 7.6405790550676733e-01  6.4253799068498441e-01 4.6775347880937401e-01 7.6496434476580755e-01  6.4246260147629897e-01 4.6714201734519334e-01 7.6548048941676905e-01  6.4238321220512273e-01 4.6650117010175912e-01 7.6602013443811900e-01  6.4230168436226642e-01 4.6584592241644907e-01 7.6657064818860432e-01  6.4221845270505207e-01 4.6517994852818412e-01 7.6712879940412693e-01  6.4213396229430031e-01 4.6450681984839326e-01 7.6769152634855120e-01  6.4204876987618653e-01 4.6383081073745291e-01 7.6825532049629808e-01  6.4196304576724472e-01 4.6315339708566866e-01 7.6881883881444490e-01  6.4187710151878719e-01 4.6247691864592705e-01 7.6938017706435458e-01  6.4179115095241146e-01 4.6180301504603177e-01 7.6993796706526363e-01  6.4170544145949804e-01 4.6113354253408301e-01 7.7049070850572310e-01  6.4162015129547856e-01 4.6046980493195810e-01 7.7103735258232531e-01  6.4153543013876624e-01 4.5981288301534817e-01 7.7157702585803789e-01  6.4145146005994691e-01 4.5916406125766207e-01 7.7210873779922307e-01  6.4136840352916569e-01 4.5852449178358246e-01 7.7263159268970205e-01  6.4128641905309847e-01 4.5789528917961697e-01 7.7314473109553994e-01  6.4120565292420573e-01 4.5727745590734098e-01 7.7364739700105967e-01  6.4112624573122479e-01 4.5667193587463362e-01 7.7413889338133313e-01  6.4104833319992405e-01 4.5607963487915182e-01 7.7461855479671271e-01  6.4097206098905157e-01 4.5550153922876097e-01 7.7508565255770145e-01  6.4089755090539857e-01 4.5493842975370208e-01 7.7553964220589144e-01  6.4082494144188862e-01 4.5439122552456751e-01 7.7597985647693002e-01  6.4075436280149478e-01 4.5386077124586138e-01 7.7640569983175234e-01  6.4068594192716943e-01 4.5334788621050703e-01 7.7681659968725947e-01  6.4061980590608580e-01 4.5285338949483867e-01 7.7721198530334445e-01  6.4055610313246525e-01 4.5237826374742590e-01 7.7759115197986128e-01  6.4049491712538387e-01 4.5192298896667266e-01 7.7795381265780539e-01  6.4043637273985210e-01 4.5148836676014736e-01 7.7829941468753050e-01  6.4038063288756275e-01 4.5107549570661759e-01 7.7862716111353680e-01  6.4032776995