<?xml version="1.0"?>
<VTKFile type="UnstructuredGrid"  version="0.1"  >
<UnstructuredGrid>
<Piece  NumberOfPoints="26111" NumberOfCells="51284">
<Points>
<DataArray  type="Float64"  NumberOfComponents="3"  format="ascii">239.8 188 0  250.2 180 0  258.2 172.4 0  257 169.4 0  259.9 157.4 0  258.7 150.3 0  261 143.5 0  251.7 144.4 0  250 138.7 0  247 138.1 0  245.2 130.8 0  247.3 126.4 0  242.7 118.6 0  231.2 107.7 0  226 102.4 0  226.5 93.90000000000001 0  224.5 91.19999999999999 0  224.5 84.09999999999999 0  234.5 73.80000000000001 0  228.4 68.90000000000001 0  230 70 0  233.4 68 0  222.7 61.5 0  220.6 45.5 0  223.4 49.40000000000001 0  224 47 0  221.8 43.09999999999999 0  221 38.40000000000001 0  219.5 38.5 0  219.4 41.69999999999999 0  217.1 36.90000000000001 0  209.7 36 0  209.5 31.69999999999999 0  205.1 29.90000000000001 0  201.5 30.40000000000001 0  199.2 38.69999999999999 0  201.8 41.40000000000001 0  194.8 53.80000000000001 0  196.1 57.69999999999999 0  193 59 0  191.4 66.09999999999999 0  193.5 66.5 0  194.1 64.40000000000001 0  195.6 64.69999999999999 0  195.4 72.40000000000001 0  199.5 77.30000000000001 0  197.7 86.90000000000001 0  200.6 87.5 0  201.5 91 0  198 94.80000000000001 0  198.6 100 0  197.3 105.4 0  198 109.5 0  197 112.7 0  198.3 116.1 0  201.3 122 0  207.2 121 0  208.1 126.7 0  205.6 127.9 0  209.1 134.9 0  210.9 144.4 0  210.1 147.9 0  213 148.4 0  215.4 149.3 0  215.1 152.8 0  219.9 159.7 0  220.3 163.2 0  218.7 164.9 0  219.9 166.7 0  221.9 169.7 0  220 170.3 0  224.9 174.7 0  229.8 177.4 0  229.7 181 0  228 172.9 0  239 178 0  240.4 180 0  239 181.5 0  241.2 185.9 0  242.95 187.99 0  240.2683998954481 187.9985130162049 0  240.8064499792029 187.996804920701 0  241.4245072212198 187.9948428342184 0  242.1344685938113 187.9925889885911 0  243.6047967303995 187.2683688447046 0  244.2300238016934 186.5793254930303 0  244.8270167459974 185.9213980964801 0  245.3970504076993 185.2931816886183 0  245.9413423691472 184.693334409726 0  246.4610548009146 184.1205754676817 0  246.9572980162405 183.5736812207225 0  247.4311315258271 183.051484014985 0  247.8835676021671 182.5528682563703 0  248.3155723408242 182.07676924094 0  248.728068439607 181.6221700920744 0  249.1219369108593 181.1880998734116 0  249.4980188478629 180.7736316421483 0  249.8571175669105 180.377880088329 0  250.547826086972 179.6695652173766 0  250.895652173944 179.3391304347532 0  251.2434782609215 179.0086956521245 0  251.5913043478991 178.6782608694958 0  251.9391304348711 178.3478260868724 0  252.2869565218431 178.017391304249 0  252.6347826088151 177.6869565216256 0  252.9826086957927 177.3565217389969 0  253.3304347827705 177.0260869563681 0  253.6782608697478 176.6956521737396 0  254.0260869567192 176.3652173911168 0  254.3739130436896 176.0347826084949 0  254.721739130661 175.704347825872 0  255.0695652176383 175.3739130432436 0  255.4173913046161 175.0434782606147 0  255.7652173915936 174.713043477986 0  256.113043478541 174.382608695386 0  256.4608695654481 174.0521739128243 0  256.8086956523607 173.7217391302573 0  257.1565217392733 173.3913043476904 0  257.5043478261859 173.0608695651234 0  257.8521739130929 172.7304347825617 0  258.0285714285786 171.9714285714466 0  257.8571428571497 171.5428571428741 0  257.6857142857176 171.1142857142939 0  257.5142857142855 170.6857142857137 0  257.3428571428534 170.2571428571335 0  257.1714285714214 169.8285714285533 0  257.1160000000011 168.9199999999954 0  257.232000000001 168.4399999999959 0  257.3480000000009 167.9599999999964 0  257.4640000000007 167.4799999999969 0  257.5800000000006 166.9999999999974 0  257.6960000000005 166.5199999999979 0  257.8120000000004 166.0399999999985 0  257.9280000000002 165.559999999999 0  258.044 165.0799999999997 0  258.1599999999999 164.6000000000005 0  258.2759999999997 164.1200000000013 0  258.3919999999995 163.6400000000021 0  258.5080000000005 163.1599999999978 0  258.6240000000003 162.6799999999987 0  258.7400000000001 162.1999999999995 0  258.8559999999999 161.7200000000003 0  258.9719999999998 161.240000000001 0  259.0879999999996 160.7600000000015 0  259.2039999999995 160.280000000002 0  259.3199999999994 159.8000000000025 0  259.4359999999992 159.320000000003 0  259.5519999999991 158.8400000000035 0  259.667999999999 158.360000000004 0  259.7839999999989 157.8800000000045 0  259.8200000000007 156.9266666666707 0  259.7400000000017 156.4533333333432 0  259.660000000002 155.980000000012 0  259.580000000001 155.5066666666725 0  259.5000000000012 155.0333333333406 0  259.4200000000022 154.560000000013 0  259.3400000000019 154.0866666666782 0  259.2600000000017 153.6133333333434 0  259.1800000000014 153.1400000000086 0  259.1000000000006 152.6666666666702 0  259.0200000000008 152.1933333333383 0  258.9399999999998 151.7199999999988 0  258.8599999999983 151.2466666666568 0  258.7799999999993 150.7733333333293 0  258.8533333333361 149.8466666666585 0  259.0066666666722 149.3933333333169 0  259.160000000005 148.9399999999853 0  259.3133333333344 148.4866666666637 0  259.4666666666643 148.0333333333404 0  259.6199999999965 147.5800000000104 0  259.7733333333283 147.1266666666815 0  259.9266666666616 146.6733333333484 0  260.0799999999934 146.2200000000195 0  260.233333333329 145.7666666666796 0  260.3866666666589 145.3133333333563 0  260.5399999999917 144.8600000000247 0  260.6933333333278 144.4066666666831 0  260.8466666666639 143.9533333333416 0  260.5105263158154 143.5473684210501 0  260.0210526316203 143.5947368421013 0  259.5315789474334 143.6421052631516 0  259.0421052632076 143.6894736842057 0  258.5526315789895 143.7368421052591 0  258.0631578947787 143.7842105263117 0  257.573684210553 143.8315789473658 0  257.0842105263371 143.878947368419 0  256.5947368421236 143.9263157894719 0  256.1052631578984 143.973684210526 0  255.6157894736727 144.0210526315801 0  255.1263157894516 144.0684210526337 0  254.6368421052409 144.1157894736863 0  254.1473684210308 144.1631578947389 0  253.6578947368314 144.2105263157905 0  253.1684210526315 144.2578947368421 0  252.6789473684208 144.3052631578947 0  252.1894736842217 144.3526315789463 0  251.5583333333298 143.9249999999882 0  251.4166666666658 143.4499999999971 0  251.2750000000023 142.9750000000076 0  251.1333333333388 142.5000000000182 0  250.9916666666717 142.0250000000168 0  250.8500000000015 141.5500000000051 0  250.7083333333314 141.0749999999933 0  250.5666666666612 140.5999999999818 0  250.4249999999977 140.1249999999923 0  250.2833333333342 139.6500000000029 0  250.1416666666702 139.1750000000117 0  249.5714285714283 138.6142857142856 0  249.142857142857 138.5285714285714 0  248.7142857142871 138.4428571428574 0  248.285714285715 138.357142857143 0  247.857142857143 138.2714285714286 0  247.4285714285717 138.1857142857144 0  246.8874999999995 137.6437499999979 0  246.7750000000005 137.1875000000023 0  246.662500000001 136.7312500000041 0  246.5500000000021 136.2750000000085 0  246.4375000000032 135.8187500000129 0  246.3250000000036 135.3625000000147 0  246.2125000000047 134.9062500000191 0  246.1000000000042 134.450000000017 0  245.9875000000011 133.9937500000044 0  245.8750000000022 133.5375000000088 0  245.7625000000026 133.0812500000106 0  245.650000000003 132.6250000000124 0  245.5375000000041 132.1687500000168 0  245.4250000000046 131.7125000000187 0  245.3125000000031 131.2562500000126 0  245.4099999999997 130.3600000000006 0  245.619999999996 129.9200000000084 0  245.8300000000029 129.4799999999939 0  246.0399999999992 129.0400000000017 0  246.2499999999989 128.6000000000023 0  246.4599999999987 128.1600000000028 0  246.6699999999966 127.720000000007 0  246.8800000000001 127.2799999999997 0  247.0899999999962 126.840000000008 0  247.0578947368415 125.9894736842094 0  246.815789473683 125.578947368419 0  246.5736842105246 125.1684210526286 0  246.3315789473688 124.7578947368428 0  246.0894736842088 124.3473684210496 0  245.847368421051 123.9368421052603 0  245.6052631578944 123.5263157894731 0  245.3631578947421 123.1157894736931 0  245.121052631583 122.7052631579015 0  244.8789473684243 122.2947368421108 0  244.6368421052652 121.8842105263193 0  244.3947368421094 121.4736842105334 0  244.1526315789515 121.0631578947438 0  243.9105263157933 120.6526315789539 0  243.6684210526312 120.2421052631572 0  243.4263157894754 119.8315789473714 0  243.184210526317 119.421052631581 0  242.9421052631585 119.0105263157906 0  242.3406250000005 118.2593750000005 0  241.9812499999996 117.9187499999997 0  241.6218750000002 117.5781250000002 0  241.2625000000007 117.2375000000007 0  240.9031250000012 116.8968750000012 0  240.5437500000017 116.5562500000017 0  240.1843750000022 116.2156250000021 0  239.8250000000041 115.875000000004 0  239.4656250000061 115.5343750000058 0  239.1062500000066 115.1937500000063 0  238.7468750000071 114.8531250000068 0  238.3875000000076 114.5125000000072 0  238.0281250000081 114.1718750000077 0  237.6687500000087 113.8312500000082 0  237.3093750000078 113.4906250000074 0  236.9500000000083 113.1500000000079 0  236.5906250000088 112.8093750000084 0  236.231250000008 112.4687500000076 0  235.8718750000085 112.1281250000081 0  235.512500000009 111.7875000000085 0  235.1531250000068 111.4468750000064 0  234.7937500000045 111.1062500000043 0  234.4343750000036 110.7656250000035 0  234.0750000000042 110.4250000000039 0  233.7156250000061 110.0843750000057 0  233.3562500000066 109.7437500000062 0  232.9968750000043 109.4031250000041 0  232.6375000000021 109.062500000002 0  232.2781250000026 108.7218750000025 0  231.9187500000031 108.381250000003 0  231.5593750000022 108.0406250000021 0  230.8533333333311 107.3466666666643 0  230.5066666666661 106.9933333333328 0  230.1599999999976 106.6399999999975 0  229.8133333333373 106.2866666666707 0  229.4666666666717 105.9333333333385 0  229.1200000000069 105.580000000007 0  228.7733333333389 105.2266666666724 0  228.4266666666694 104.8733333333361 0  228.0800000000003 104.5200000000003 0  227.7333333333338 104.1666666666672 0  
[...]
<PointData  Vectors="f_17"> 
<DataArray  type="Float64"  Name="f_17"  NumberOfComponents="3" format="ascii">5.4993706095102368e-01 1.3358662263495674e-01 7.5292388489838791e-01  5.4898946458417497e-01 1.3200626640773938e-01 7.4947938338785014e-01  5.4791259360175526e-01 1.3023934421916572e-01 7.4550673583255311e-01  5.4743473627407480e-01 1.2946904092205927e-01 7.4372151918409546e-01  5.4436312107191498e-01 1.2464804282400517e-01 7.3197305140091429e-01  5.4254884363029254e-01 1.2192146947901181e-01 7.2480017576848688e-01  5.4198387335953480e-01 1.2108409350883040e-01 7.2253388397118146e-01  5.3968573494140060e-01 1.1783568058905236e-01 7.1311667143774460e-01  5.3654071738625175e-01 1.1355268142172421e-01 6.9985343407169132e-01  5.3504775989634767e-01 1.1163367655188523e-01 6.9334852961589988e-01  5.3023410502645796e-01 1.0575381784477642e-01 6.7173182993447034e-01  5.2884415076672719e-01 1.0415455099727153e-01 6.6529317787407427e-01  5.2723813008679221e-01 1.0238763054982714e-01 6.5772681908447117e-01  5.2470231635416897e-01 9.9731740018935588e-02 6.4554523268750574e-01  5.2440381241748935e-01 9.9428709094319737e-02 6.4409277446665336e-01  5.2529736098664725e-01 1.0034024468470432e-01 6.4843051447938882e-01  5.2595794275351060e-01 1.0103010905466608e-01 6.5161061169142687e-01  5.2851096514972851e-01 1.0378570453639446e-01 6.6372275696755867e-01  5.3100196967454694e-01 1.0661037768588769e-01 6.7526146913984353e-01  5.3161913502879188e-01 1.0734377150066710e-01 6.7807254550883556e-01  5.3139529356833948e-01 1.0707590949036841e-01 6.7705553315572742e-01  5.3144941390126244e-01 1.0713835452476457e-01 6.7730242070551905e-01  5.3459188095418553e-01 1.1100986973600427e-01 6.9135449426164497e-01  5.3927110789058530e-01 1.1720642399196238e-01 7.1140550453216911e-01  5.3823504041331693e-01 1.1578259260204048e-01 7.0706327706114436e-01  5.3950063776800894e-01 1.1752318160434498e-01 7.1236289683165932e-01  5.3956924342558144e-01 1.1761947575565841e-01 7.1264738152052132e-01  5.3977166351118244e-01 1.1790165510730216e-01 7.1348690397217251e-01  5.3977187671702664e-01 1.1790195591060952e-01 7.1348778738028951e-01  5.3972009152395473e-01 1.1783047454819315e-01 7.1327298831195463e-01  5.4016487043977146e-01 1.1845603572239644e-01 7.1511162761910585e-01  5.4073760939710458e-01 1.1927132461089565e-01 7.1746320995151702e-01  5.4113442820940072e-01 1.1983929931554045e-01 7.1908424652062752e-01  5.4122738510134627e-01 1.1997300806292471e-01 7.1946265044991997e-01  5.4123346196832933e-01 1.1998177905910784e-01 7.1948738283905600e-01  5.4082959212782244e-01 1.1940282099863483e-01 7.1784050356788431e-01  5.4025608434722883e-01 1.1858977977400822e-01 7.1548457794436882e-01  5.3738036563082614e-01 1.1462702195405101e-01 7.0343874368786641e-01  5.3642095839893567e-01 1.1335710172602195e-01 6.9932366339376451e-01  5.3587158666605805e-01 1.1263516893983738e-01 6.9695330444133485e-01  5.3406407764936115e-01 1.1032772253101848e-01 6.8903672929411675e-01  5.3410363414061401e-01 1.1037866819542785e-01 6.8921082810385859e-01  5.3523930256230379e-01 1.1182108966765084e-01 6.9419989306262564e-01  5.3484535006210543e-01 1.1132004455879937e-01 6.9247260709997116e-01  5.3319195865608371e-01 1.0925204227912474e-01 6.8515741009058317e-01  5.3086079227369976e-01 1.0647050105865169e-01 6.7460523775078574e-01  5.2804736855640755e-01 1.0326642074846736e-01 6.6155586868275817e-01  5.2755975800747446e-01 1.0274025677027618e-01 6.5924752859738189e-01  5.2593409897317345e-01 1.0101122521945230e-01 6.5149173000992389e-01  5.2470936846894423e-01 9.9740713767663344e-02 6.4558090716324057e-01  5.2403901771605788e-01 9.9065793679935621e-02 6.4231138318631775e-01  5.2345708700375193e-01 9.8488383972821628e-02 6.3945832999620000e-01  5.2323187957737549e-01 9.8267600194149179e-02 6.3834995590683241e-01  5.2313597846370630e-01 9.8174040768755619e-02 6.3787737737876815e-01  5.2314049446250610e-01 9.8178640075755330e-02 6.3789969643433542e-01  5.2327319749539669e-01 9.8308871092134792e-02 6.3855372735685656e-01  5.2399802503581117e-01 9.9029688893511644e-02 6.4210754944781290e-01  5.2569427125734103e-01 1.0075663832232534e-01 6.5034384603804951e-01  5.2601537808016963e-01 1.0108868768880802e-01 6.5189150329882906e-01  5.2750896148293880e-01 1.0268853983465739e-01 6.5900763060354106e-01  5.3064063621098279e-01 1.0621045546830916e-01 6.7360935541336031e-01  5.3114981157869057e-01 1.0680300649518773e-01 6.7594416409160685e-01  5.3153991750638030e-01 1.0727164307917307e-01 6.7771596364604458e-01  5.3287577366524330e-01 1.0889772322698273e-01 6.8373237426050504e-01  5.3460618702594331e-01 1.1104517230384192e-01 6.9143137634026042e-01  5.3868826572377693e-01 1.1645093403338866e-01 7.0896181988836959e-01  5.4088967014214095e-01 1.1952470019109013e-01 7.1808759068886541e-01  5.4150477342203107e-01 1.2040036367774540e-01 7.2059952192349974e-01  5.4189077042555822e-01 1.2096029723306011e-01 7.2215909292008007e-01  5.4263372547050026e-01 1.2204996721249534e-01 7.2514121793277075e-01  5.4242572605789874e-01 1.2174050312528081e-01 7.2431162773665136e-01  5.4376717845957590e-01 1.2374202797045475e-01 7.2963911342554522e-01  5.4625051107599376e-01 1.2757893918124613e-01 7.3925236343608547e-01  5.4653614663347372e-01 1.2802761783047500e-01 7.4033919804906878e-01  5.4447708185401633e-01 1.2483052919971277e-01 7.3241177484737907e-01  5.4779453207103967e-01 1.3005735490483350e-01 7.4506109494495909e-01  5.4895696127513061e-01 1.3195871852208665e-01 7.4935613963511083e-01  5.4936876064978568e-01 1.3263834472672298e-01 7.5086372553356395e-01  5.4983650229860426e-01 1.3341813854639423e-01 7.5256055348861750e-01  5.4989945116220995e-01 1.3352349619852985e-01 7.5278812592123812e-01  5.4993517941145642e-01 1.3358346629559459e-01 7.5291709271201968e-01  5.4992967406674387e-01 1.3357422890665976e-01 7.5289722038175433e-01  5.4992101253705705e-01 1.3355969175536198e-01 7.5286595724077232e-01  5.4990985064381204e-01 1.3354095431039531e-01 7.5282566795313577e-01  5.4987030776607593e-01 1.3347462578830099e-01 7.5268284310241962e-01  5.4982302594239130e-01 1.3339537022540515e-01 7.5251194635105123e-01  5.4976614011504277e-01 1.3330007283543341e-01 7.5230618124809356e-01  5.4970315313896778e-01 1.3319463227199113e-01 7.5207814923668403e-01  5.4963653012231384e-01 1.3308319614657732e-01 7.5183672076371200e-01  5.4956799434320647e-01 1.3296866080123587e-01 7.5158811182123408e-01  5.4949854986653679e-01 1.3285271494237733e-01 7.5133594701903905e-01  5.4942942672406769e-01 1.3273741429702859e-01 7.5108469141314682e-01  5.4936165481288968e-01 1.3262447442011896e-01 7.5083809446448257e-01  5.4929529258627974e-01 1.3251399044588497e-01 7.5059638638574344e-01  5.4923072423829833e-01 1.3240659719762296e-01 7.5036098106422755e-01  5.4916797179116106e-01 1.3230232610569392e-01 7.5013197687854982e-01  5.4910697888935656e-01 1.3220107591115082e-01 7.4990918913606808e-01  5.4904779252780067e-01 1.3210291558988316e-01 7.4969280792586013e-01  5.4893482409302652e-01 1.3191580311462558e-01 7.4927929151104100e-01  5.4888165986272830e-01 1.3182786044855760e-01 7.4908445267567680e-01  5.4882906166753442e-01 1.3174093167771023e-01 7.4889153641068185e-01  5.4877661762987151e-01 1.3165433577701549e-01 7.4869903705928631e-01  5.4872429197943551e-01 1.3156801427023496e-01 7.4850682335456586e-01  5.4867195210939845e-01 1.3148174862047898e-01 7.4831441051589087e-01  5.4861966512588278e-01 1.3139564937256373e-01 7.4812204566455665e-01  5.4856730523271158e-01 1.3130951002098556e-01 7.4792926773515800e-01  5.4851503205544960e-01 1.3122359308666220e-01 7.4773666401609884e-01  5.4846273096212084e-01 1.3113771022110188e-01 7.4754381504486689e-01  5.4841056734265181e-01 1.3105213278348454e-01 7.4735133099700035e-01  5.4835872906141070e-01 1.3096716738894573e-01 7.4715990805783372e-01  5.4830736151904935e-01 1.3088305083392357e-01 7.4697008691835520e-01  5.4825663076931253e-01 1.3080005281152818e-01 7.4678248666122882e-01  5.4820674516471091e-01 1.3071851133679849e-01 7.4659788462942633e-01  5.4815806437535308e-01 1.3063901074616374e-01 7.4641761939683360e-01  5.4811099312009226e-01 1.3056220714049191e-01 7.4624320020143753e-01  5.4806600032116770e-01 1.3048885959299136e-01 7.4607637780700831e-01  5.4802391176942888e-01 1.3042030635372387e-01 7.4592022932345559e-01  5.4798563310611803e-01 1.3035801269524744e-01 7.4577813399950454e-01  5.4795276755544053e-01 1.3030457407784066e-01 7.4565606665682815e-01  5.4792648418172785e-01 1.3026188369799374e-01 7.4555838630704230e-01  5.4789677389033975e-01 1.3021374697263860e-01 7.4544782887107985e-01  5.4786221564543247e-01 1.3015786989679640e-01 7.4531908334349661e-01  5.4781243701183835e-01 1.3007744987232886e-01 7.4513351091525937e-01  5.4774800030416737e-01 1.2997344499195340e-01 7.4489309505155488e-01  5.4766854265712983e-01 1.2984532684336658e-01 7.4459634747757364e-01  5.4756909163221823e-01 1.2968515880198539e-01 7.4422450010283281e-01  5.4727955674426199e-01 1.2921980554392920e-01 7.4313968846316103e-01  5.4714599997818225e-01 1.2900567616921807e-01 7.4263806935296206e-01  5.4701730300002305e-01 1.2879971777411858e-01 7.4215386641258596e-01  5.4689041282526840e-01 1.2859704721550555e-01 7.4167560802674626e-01  5.4676378954861082e-01 1.2839520622602413e-01 7.4119750464767697e-01  5.4663722953247373e-01 1.2819387792615722e-01 7.4071878102116606e-01  5.4651044015494166e-01 1.2799259790496781e-01 7.4023833757882762e-01  5.4638346660115411e-01 1.2779144745298493e-01 7.3975633130358665e-01  5.4625612699668769e-01 1.2759014157578158e-01 7.3927207364588066e-01  5.4612851686597874e-01 1.2738883412631921e-01 7.3878592564495116e-01  5.4600092350374640e-01 1.2718798179266361e-01 7.3829897569037883e-01  5.4587341807763556e-01 1.2698769154288680e-01 7.3781150922758210e-01  5.4574630138943858e-01 1.2678843739442411e-01 7.3732467377687350e-01  5.4561942327623747e-01 1.2658998279865311e-01 7.3683790519486014e-01  5.4549326366735773e-01 1.2639306609357162e-01 7.3635306692918723e-01  5.4536799370196876e-01 1.2619795111814960e-01 7.3587082774108159e-01  5.4524388600556883e-01 1.2600505326934747e-01 7.3539225895567517e-01  5.4512144384468719e-01 1.2581514077458697e-01 7.3491932938705751e-01  5.4500046867613217e-01 1.2562788837563077e-01 7.3445132079960118e-01  5.4488199123889314e-01 1.2544488379141763e-01 7.3399223337124497e-01  5.4476602832672938e-01 1.2526613118138308e-01 7.3354219144610222e-01  5.4465390610911746e-01 1.2509364554096072e-01 7.3310639937811695e-01  5.4454664532335084e-01 1.2492897364794323e-01 7.3268888423658685e-01  5.4444604022388998e-01 1.2477483341752670e-01 7.3229671922329531e-01  5.4428008246822746e-01 1.2452138418515374e-01 7.3164839360426659e-01  5.4417986502570015e-01 1.2436882362838399e-01 7.3125604408636469e-01  5.4407101575426875e-01 1.2420345041830186e-01 7.3082930738225371e-01  5.4395643552036577e-01 1.2402971025592016e-01 7.3037945474351096e-01  5.4383751796523550e-01 1.2384976932337330e-01 7.2991187368368182e-01  5.4371548831416638e-01 1.2366548524606380e-01 7.2943132564622448e-01  5.4359112112214480e-01 1.2347805016382432e-01 7.2894082181098885e-01  5.4346504797405126e-01 1.2328843472827353e-01 7.2844280437376530e-01  5.4333778885883299e-01 1.2309743066860278e-01 7.2793929987191874e-01  5.4320979336084085e-01 1.2290571883153184e-01 7.2743206460880971e-01  5.4308148054411109e-01 1.2271391840685075e-01 7.2692275935399986e-01  5.4295299549741749e-01 1.2252223746697824e-01 7.2641196023896037e-01  5.4282405686364155e-01 1.2233024339247428e-01 7.2589854595351200e-01  5.4269252536860546e-01 1.2213472921608648e-01 7.2537400041166700e-01  5.4242233586436472e-01 1.2173385385977495e-01 7.2429426641433059e-01  5.4232813947631608e-01 1.2159427688406096e-01 7.2391710958910771e-01  5.4225059967884504e-01 1.2147947215859616e-01 7.2360629700819334e-01  5.4218678434844703e-01 1.2138503890974812e-01 7.2335023163832068e-01  5.4213386978897182e-01 1.2130676919253697e-01 7.2313770855120985e-01  5.4209154751226341e-01 1.2124415012441220e-01 7.2296759053945492e-01  5.4205680738111739e-01 1.2119276593255125e-01 7.2282783832415520e-01  5.4203077569926494e-01 1.2115420956741635e-01 7.2272304705376977e-01  5.4201130966042710e-01 1.2112533904260542e-01 7.2264463362173625e-01  5.4199771338207658e-01 1.2110512297335316e-01 7.2258982592196785e-01  5.4198927758245052e-01 1.2109251244247386e-01 7.2255578989835612e-01  5.4198493557191540e-01 1.2108594357382059e-01 7.2253824454299775e-01  5.4198339609985047e-01 1.2108353082111731e-01 7.2253199872861695e-01  5.4198349072584007e-01 1.2108356797008910e-01 7.2253235160935581e-01  5.4198252065388963e-01 1.2108215809811879e-01 7.2252844325757848e-01  5.4197706844612548e-01 1.2107432976996510e-01 7.2250650245934545e-01  5.4196612140597500e-01 1.2105858377968801e-01 7.2246242913124448e-01  5.4194833646838103e-01 1.2103297744738384e-01 7.2239079118656679e-01  5.4192244040984183e-01 1.2099567717697968e-01 7.2228642329482429e-01  5.4188758474230569e-01 1.2094547917307538e-01 7.2214585562072353e-01  5.4184234634170469e-01 1.2088035396111324e-01 7.2196327578694397e-01  5.4178595628366366e-01 1.2079923991026539e-01 7.2173548402877885e-01  5.4171768908923212e-01 1.2070115986030885e-01 7.2145942013315056e-01  5.4163573103820073e-01 1.2058358092453660e-01 7.2112757363087165e-01  5.4153889677071287e-01 1.2044490926953025e-01 7.2073492119361804e-01  5.4142605288947254e-01 1.2028366004122371e-01 7.2027658023119190e-01  5.4129528103435909e-01 1.2009726049545577e-01 7.1974438988819889e-01  5.4114380781118698e-01 1.1988197033976809e-01 7.1912657811162228e-01  5.4096776415196379e-01 1.1963256126661512e-01 7.1840672352866253e-01  5.4076116180311495e-01 1.1934087804158616e-01 7.1755951493748282e-01  5.4051248181845524e-01 1.1899109710173594e-01 7.1653656205807725e-01  5.4018904102703458e-01 1.1853798261247410e-01 7.1520145305282978e-01  5.3913016576002093e-01 1.1706440875411742e-01 7.1080579140368061e-01  5.3873816508390038e-01 1.1652286976795179e-01 7.0916884411564496e-01  5.3840294321111726e-01 1.1606209055489344e-01 7.0776355905598343e-01  5.3809982120482391e-01 1.1564752774030487e-01 7.0648814611605482e-01  5.3782114369146650e-01 1.1526833395689562e-01 7.0531142930961443e-01  5.3756203692116133e-01 1.1491744748159474e-01 7.0421389545777124e-01  5.3732313955752098e-01 1.1459548524429641e-01 7.0319888245851581e-01  5.3710456799364947e-01 1.1430224840149711e-01 7.0226769702193570e-01  5.3690947192262439e-01 1.1404165707710044e-01 7.0143442859233285e-01  5.3674279607854525e-01 1.1381996306904449e-01 7.0072091905618494e-01  5.3661248106755999e-01 1.1364733721346114e-01 7.0016190772306319e-01  5.3648280332177256e-01 1.1347709001686804e-01 6.9960333148457665e-01  5.3637201505606380e-01 1.1333303603610181e-01 6.9912400483866299e-01  5.3622139400615887e-01 1.1313788505847361e-01 6.9847108828002935e-01  5.3603231717842792e-01 1.1289380110240119e-01 6.9764970958322947e-01  5.3579924071815443e-01 1.1259404808519553e-01 6.9663477744927516e-01  5.3550033659036123e-01 1.1221113001302596e-01 6.9532981450131648e-01  5.3452806130531894e-01 1.1097401044307750e-01 6.9106580638324910e-01  5.3414041510760213e-01 1.1048468882186224e-01 6.8935707014948588e-01  5.3379829456380257e-01 1.1005531867233978e-01 6.8784358927830458e-01  5.3348114805261804e-01 1.0965964254711885e-01 6.8643559633347129e-01  5.3318046353687498e-01 1.0928673055724139e-01 6.8509608132452593e-01  5.3289200041141849e-01 1.0893108045437667e-01 6.8380675374561084e-01  5.3261355258923782e-01 1.0858980922348441e-01 6.8255816684539006e-01  5.3234324615408501e-01 1.0826045175429372e-01 6.8134230483777469e-01  5.3207961559518646e-01 1.0794107099741065e-01 6.8015290155772890e-01  5.3182144803346598e-01 1.0763007781856562e-01 6.7898473051164077e-01  5.3156738869221942e-01 1.0732569049851642e-01 6.7783194342050535e-01  5.3131611947205659e-01 1.0702629768006502e-01 6.7668861180113571e-01  5.3106558482395516e-01 1.0672933758963177e-01 6.7554556630707274e-01  5.3081219990516793e-01 1.0643052255706334e-01 6.7438648633215093e-01  5.3054705910153754e-01 1.0611936992213963e-01 6.7317054583805946e-01  5.2993823198953294e-01 1.0540973118489647e-01 6.7036851766746508e-01  5.2972095039946210e-01 1.0515805235641634e-01 6.6936521750424627e-01  5.2954019739410929e-01 1.0494947672852839e-01 6.6852894890245995e-01  5.2938416982842484e-01 1.0477007624845759e-01 6.6780578547629488e-01  5.2924693372023024e-01 1.0461279777120472e-01 6.6716872980906894e-01  5.2912906451368391e-01 1.0447812727424885e-01 6.6662080503817034e-01  5.2902780544359462e-01 1.0436279354880512e-01 6.6614948087312420e-01  5.2894467711331539e-01 1.0426835182440095e-01 6.6576215165619579e-01  5.2888078303513231e-01 1.0419594792706555e-01 6.6546416894637239e-01  5.2881065222164259e-01 1.0411690951868276e-01 6.6513656741553506e-01  5.2875495621662771e-01 1.0405449408098112e-01 6.6487597456616587e-01  5.2868660558591385e-01 1.0397807469401016e-01 6.6455593939037727e-01  5.2860920645644938e-01 1.0389172433928814e-01 6.6419327518660487e-01  5.2852544718145689e-01 1.0379847692683766e-01 6.6380051659694206e-01  5.2843676621927738e-01 1.0369996270114520e-01 6.6338434882194730e-01  5.2834470629898200e-01 1.0359791148455019e-01 6.6295197838859077e-01  5.2825027121035817e-01 1.0349344982307429e-01 6.6250808852330378e-01  5.2815402576802539e-01 1.0338721294751760e-01 6.6205530440716553e-01  5.2805668899582381e-01 1.0328000279446323e-01 6.6159698912886422e-01  5.2795896649296203e-01 1.0317259872239380e-01 6.6113645958493406e-01  5.2786141178483525e-01 1.0306560973230854e-01 6.6067632074081240e-01  5.2776449529992231e-01 1.0295954957474612e-01 6.6021879197363831e-01  5.2766874505183825e-01 1.0285498974250137e-01 6.5976637905295443e-01  5.2757470976288323e-01 1.0275252262148900e-01 6.5932168749520725e-01  5.2748304064928198e-01 1.0265284676446032e-01 6.5888781775450400e-01  5.2739467628684411e-01 1.0255696683404053e-01 6.5846924393704875e-01  5.2731138933451394e-01 1.0246678617915042e-01 6.5807440087256941e-01  5.2716287590905142e-01 1.0230652030454990e-01 6.5736944858145763e-01  5.2707852513073394e-01 1.0221580582644982e-01 6.5696854636503021e-01  5.2699035804104011e-01 1.0212119930437388e-01 6.5654914476059734e-01  5.2690044737699637e-01 1.0202492031447821e-01 6.5612110840019222e-01  5.2680926351161106e-01 1.0192748869824862e-01 6.5568664123604414e-01  5.2671723976046503e-01 1.0182937231621605e-01 6.5524779234862784e-01  5.2662497440109768e-01 1.0173119628877847e-01 6.5480743631960292e-01  5.2653261665799234e-01 1.0163313351136821e-01 6.5436625496284107e-01  5.2644047225847035e-01 1.0153550105399942e-01 6.5392572078662070e-01  5.2634872951443024e-01 1.0143849804156466e-01 6.5348673254183065e-01  5.2625764569171807e-01 1.0134239063847517e-01 6.5305053171545202e-01  5.2616737222170673e-01 1.0124733381678161e-01 6.5261785108755510e-01  5.2607799790613319e-01 1.0115341804465453e-01 6.5218911994289963e-01  5.2598968944695068e-01 1.0106080909969144e-01 6.5176515526286971e-01  5.2590258429141779e-01 1.0096964402776976e-01 6.5134662958470835e-01  5.2581680845528000e-01 1.0088004757448243e-01 6.5093416118870129e-01  5.2573247248300059e-01 1.0079212662505141e-01 6.5052829711477100e-01  5.2564967955931663e-01 1.0070597897571341e-01 6.5012955175193299e-01  5.2556852117135733e-01 1.0062169033472759e-01 6.4973838288864849e-01  5.2548910807320159e-01 1.0053936643118069e-01 6.4935534140308226e-01  5.2541153159910681e-01 1.0045909030542025e-01 6.4898088942082022e-01  5.2533587881904242e-01 1.0038094237220388e-01 6.4861546481394905e-01  5.2526223722213483e-01 1.0030500200889958e-01 6.4825951045296737e-01  5.2519069285367603e-01 1.0023134681094011e-01 6.4791346280723905e-01  5.2512132812762324e-01 1.0016005049040441e-01 6.4757774100626042e-01  5.2505423545205065e-01 1.0009119760017400e-01 6.4725281134582491e-01  5.2498946430780846e-01 1.0002482599913406e-01 6.4693893741132869e-01  5.2492708725339055e-01 9.9960998844640991e-02 6.4663649139180968e-01  5.2486720071920290e-01 9.9899805201270203e-02 6.4634595838650766e-01  5.2480982630