<?xml version="1.0"?>
<VTKFile type="UnstructuredGrid"  version="0.1"  >
<UnstructuredGrid>
<Piece  NumberOfPoints="26111" NumberOfCells="51284">
<Points>
<DataArray  type="Float64"  NumberOfComponents="3"  format="ascii">239.8 188 0  250.2 180 0  258.2 172.4 0  257 169.4 0  259.9 157.4 0  258.7 150.3 0  261 143.5 0  251.7 144.4 0  250 138.7 0  247 138.1 0  245.2 130.8 0  247.3 126.4 0  242.7 118.6 0  231.2 107.7 0  226 102.4 0  226.5 93.90000000000001 0  224.5 91.19999999999999 0  224.5 84.09999999999999 0  234.5 73.80000000000001 0  228.4 68.90000000000001 0  230 70 0  233.4 68 0  222.7 61.5 0  220.6 45.5 0  223.4 49.40000000000001 0  224 47 0  221.8 43.09999999999999 0  221 38.40000000000001 0  219.5 38.5 0  219.4 41.69999999999999 0  217.1 36.90000000000001 0  209.7 36 0  209.5 31.69999999999999 0  205.1 29.90000000000001 0  201.5 30.40000000000001 0  199.2 38.69999999999999 0  201.8 41.40000000000001 0  194.8 53.80000000000001 0  196.1 57.69999999999999 0  193 59 0  191.4 66.09999999999999 0  193.5 66.5 0  194.1 64.40000000000001 0  195.6 64.69999999999999 0  195.4 72.40000000000001 0  199.5 77.30000000000001 0  197.7 86.90000000000001 0  200.6 87.5 0  201.5 91 0  198 94.80000000000001 0  198.6 100 0  197.3 105.4 0  198 109.5 0  197 112.7 0  198.3 116.1 0  201.3 122 0  207.2 121 0  208.1 126.7 0  205.6 127.9 0  209.1 134.9 0  210.9 144.4 0  210.1 147.9 0  213 148.4 0  215.4 149.3 0  215.1 152.8 0  219.9 159.7 0  220.3 163.2 0  218.7 164.9 0  219.9 166.7 0  221.9 169.7 0  220 170.3 0  224.9 174.7 0  229.8 177.4 0  229.7 181 0  228 172.9 0  239 178 0  240.4 180 0  239 181.5 0  241.2 185.9 0  242.95 187.99 0  240.2683998954481 187.9985130162049 0  240.8064499792029 187.996804920701 0  241.4245072212198 187.9948428342184 0  242.1344685938113 187.9925889885911 0  243.6047967303995 187.2683688447046 0  244.2300238016934 186.5793254930303 0  244.8270167459974 185.9213980964801 0  245.3970504076993 185.2931816886183 0  245.9413423691472 184.693334409726 0  246.4610548009146 184.1205754676817 0  246.9572980162405 183.5736812207225 0  247.4311315258271 183.051484014985 0  247.8835676021671 182.5528682563703 0  248.3155723408242 182.07676924094 0  248.728068439607 181.6221700920744 0  249.1219369108593 181.1880998734116 0  249.4980188478629 180.7736316421483 0  249.8571175669105 180.377880088329 0  250.547826086972 179.6695652173766 0  250.895652173944 179.3391304347532 0  251.2434782609215 179.0086956521245 0  251.5913043478991 178.6782608694958 0  251.9391304348711 178.3478260868724 0  252.2869565218431 178.017391304249 0  252.6347826088151 177.6869565216256 0  252.9826086957927 177.3565217389969 0  253.3304347827705 177.0260869563681 0  253.6782608697478 176.6956521737396 0  254.0260869567192 176.3652173911168 0  254.3739130436896 176.0347826084949 0  254.721739130661 175.704347825872 0  255.0695652176383 175.3739130432436 0  255.4173913046161 175.0434782606147 0  255.7652173915936 174.713043477986 0  256.113043478541 174.382608695386 0  256.4608695654481 174.0521739128243 0  256.8086956523607 173.7217391302573 0  257.1565217392733 173.3913043476904 0  257.5043478261859 173.0608695651234 0  257.8521739130929 172.7304347825617 0  258.0285714285786 171.9714285714466 0  257.8571428571497 171.5428571428741 0  257.6857142857176 171.1142857142939 0  257.5142857142855 170.6857142857137 0  257.3428571428534 170.2571428571335 0  257.1714285714214 169.8285714285533 0  257.1160000000011 168.9199999999954 0  257.232000000001 168.4399999999959 0  257.3480000000009 167.9599999999964 0  257.4640000000007 167.4799999999969 0  257.5800000000006 166.9999999999974 0  257.6960000000005 166.5199999999979 0  257.8120000000004 166.0399999999985 0  257.9280000000002 165.559999999999 0  258.044 165.0799999999997 0  258.1599999999999 164.6000000000005 0  258.2759999999997 164.1200000000013 0  258.3919999999995 163.6400000000021 0  258.5080000000005 163.1599999999978 0  258.6240000000003 162.6799999999987 0  258.7400000000001 162.1999999999995 0  258.8559999999999 161.7200000000003 0  258.9719999999998 161.240000000001 0  259.0879999999996 160.7600000000015 0  259.2039999999995 160.280000000002 0  259.3199999999994 159.8000000000025 0  259.4359999999992 159.320000000003 0  259.5519999999991 158.8400000000035 0  259.667999999999 158.360000000004 0  259.7839999999989 157.8800000000045 0  259.8200000000007 156.9266666666707 0  259.7400000000017 156.4533333333432 0  259.660000000002 155.980000000012 0  259.580000000001 155.5066666666725 0  259.5000000000012 155.0333333333406 0  259.4200000000022 154.560000000013 0  259.3400000000019 154.0866666666782 0  259.2600000000017 153.6133333333434 0  259.1800000000014 153.1400000000086 0  259.1000000000006 152.6666666666702 0  259.0200000000008 152.1933333333383 0  258.9399999999998 151.7199999999988 0  258.8599999999983 151.2466666666568 0  258.7799999999993 150.7733333333293 0  258.8533333333361 149.8466666666585 0  259.0066666666722 149.3933333333169 0  259.160000000005 148.9399999999853 0  259.3133333333344 148.4866666666637 0  259.4666666666643 148.0333333333404 0  259.6199999999965 147.5800000000104 0  259.7733333333283 147.1266666666815 0  259.9266666666616 146.6733333333484 0  260.0799999999934 146.2200000000195 0  260.233333333329 145.7666666666796 0  260.3866666666589 145.3133333333563 0  260.5399999999917 144.8600000000247 0  260.6933333333278 144.4066666666831 0  260.8466666666639 143.9533333333416 0  260.5105263158154 143.5473684210501 0  260.0210526316203 143.5947368421013 0  259.5315789474334 143.6421052631516 0  259.0421052632076 143.6894736842057 0  258.5526315789895 143.7368421052591 0  258.0631578947787 143.7842105263117 0  257.573684210553 143.8315789473658 0  257.0842105263371 143.878947368419 0  256.5947368421236 143.9263157894719 0  256.1052631578984 143.973684210526 0  255.6157894736727 144.0210526315801 0  255.1263157894516 144.0684210526337 0  254.6368421052409 144.1157894736863 0  254.1473684210308 144.1631578947389 0  253.6578947368314 144.2105263157905 0  253.1684210526315 144.2578947368421 0  252.6789473684208 144.3052631578947 0  252.1894736842217 144.3526315789463 0  251.5583333333298 143.9249999999882 0  251.4166666666658 143.4499999999971 0  251.2750000000023 142.9750000000076 0  251.1333333333388 142.5000000000182 0  250.9916666666717 142.0250000000168 0  250.8500000000015 141.5500000000051 0  250.7083333333314 141.0749999999933 0  250.5666666666612 140.5999999999818 0  250.4249999999977 140.1249999999923 0  250.2833333333342 139.6500000000029 0  250.1416666666702 139.1750000000117 0  249.5714285714283 138.6142857142856 0  249.142857142857 138.5285714285714 0  248.7142857142871 138.4428571428574 0  248.285714285715 138.357142857143 0  247.857142857143 138.2714285714286 0  247.4285714285717 138.1857142857144 0  246.8874999999995 137.6437499999979 0  246.7750000000005 137.1875000000023 0  246.662500000001 136.7312500000041 0  246.5500000000021 136.2750000000085 0  246.4375000000032 135.8187500000129 0  246.3250000000036 135.3625000000147 0  246.2125000000047 134.9062500000191 0  246.1000000000042 134.450000000017 0  245.9875000000011 133.9937500000044 0  245.8750000000022 133.5375000000088 0  245.7625000000026 133.0812500000106 0  245.650000000003 132.6250000000124 0  245.5375000000041 132.1687500000168 0  245.4250000000046 131.7125000000187 0  245.3125000000031 131.2562500000126 0  245.4099999999997 130.3600000000006 0  245.619999999996 129.9200000000084 0  245.8300000000029 129.4799999999939 0  246.0399999999992 129.0400000000017 0  246.2499999999989 128.6000000000023 0  246.4599999999987 128.1600000000028 0  246.6699999999966 127.720000000007 0  246.8800000000001 127.2799999999997 0  247.0899999999962 126.840000000008 0  247.0578947368415 125.9894736842094 0  246.815789473683 125.578947368419 0  246.5736842105246 125.1684210526286 0  246.3315789473688 124.7578947368428 0  246.0894736842088 124.3473684210496 0  245.847368421051 123.9368421052603 0  245.6052631578944 123.5263157894731 0  245.3631578947421 123.1157894736931 0  245.121052631583 122.7052631579015 0  244.8789473684243 122.2947368421108 0  244.6368421052652 121.8842105263193 0  244.3947368421094 121.4736842105334 0  244.1526315789515 121.0631578947438 0  243.9105263157933 120.6526315789539 0  243.6684210526312 120.2421052631572 0  243.4263157894754 119.8315789473714 0  243.184210526317 119.421052631581 0  242.9421052631585 119.0105263157906 0  242.3406250000005 118.2593750000005 0  241.9812499999996 117.9187499999997 0  241.6218750000002 117.5781250000002 0  241.2625000000007 117.2375000000007 0  240.9031250000012 116.8968750000012 0  240.5437500000017 116.5562500000017 0  240.1843750000022 116.2156250000021 0  239.8250000000041 115.875000000004 0  239.4656250000061 115.5343750000058 0  239.1062500000066 115.1937500000063 0  238.7468750000071 114.8531250000068 0  238.3875000000076 114.5125000000072 0  238.0281250000081 114.1718750000077 0  237.6687500000087 113.8312500000082 0  237.3093750000078 113.4906250000074 0  236.9500000000083 113.1500000000079 0  236.5906250000088 112.8093750000084 0  236.231250000008 112.4687500000076 0  235.8718750000085 112.1281250000081 0  235.512500000009 111.7875000000085 0  235.1531250000068 111.4468750000064 0  234.7937500000045 111.1062500000043 0  234.4343750000036 110.7656250000035 0  234.0750000000042 110.4250000000039 0  233.7156250000061 110.0843750000057 0  233.3562500000066 109.7437500000062 0  232.9968750000043 109.4031250000041 0  232.6375000000021 109.062500000002 0  232.2781250000026 108.7218750000025 0  231.9187500000031 108.381250000003 0  231.5593750000022 108.0406250000021 0  230.8533333333311 107.3466666666643 0  230.5066666666661 106.9933333333328 0  230.1599999999976 106.6399999999975 0  229.8133333333373 106.2866666666707 0  229.4666666666717 105.9333333333385 0  229.1200000000069 105.580000000007 0  228.7733333333389 105.2266666666724 0  228.4266666666694 104.8733333333361 0  228.0800000000003 104.5200000000003 0  227.7333333333338 104.1666666666672 0  
[...]
<PointData  Vectors="f_17"> 
<DataArray  type="Float64"  Name="f_17"  NumberOfComponents="3" format="ascii">4.8469531801018778e-01 8.0457393475444061e-02 4.1901559766576624e-01  4.8469528190997252e-01 8.0457363423705172e-02 4.1901538176161268e-01  4.8469489349207390e-01 8.0457187749313278e-02 4.1901304929958871e-01  4.8469379246332361e-01 8.0456852475454838e-02 4.1900640917809651e-01  4.8463076295843854e-01 8.0448514833757451e-02 4.1862323501589149e-01  4.8430624979367903e-01 8.0449134788583745e-02 4.1663219658284700e-01  4.8426080001030086e-01 8.0444013517515026e-02 4.1635611950795604e-01  4.7971246508646509e-01 8.2835660968880107e-02 3.8679400018678189e-01  4.7065013453189497e-01 9.6256489159298977e-02 3.2238121406574799e-01  4.6703147589858579e-01 1.2134995477179034e-01 2.8520900772626939e-01  4.7343347973579919e-01 3.2819523813147494e-01 1.9495757849652798e-01  4.8419501497474698e-01 4.3670275774514833e-01 1.8169729813610278e-01  5.0813528743114611e-01 5.8369840848535504e-01 1.9534602612238966e-01  5.2233334924029517e-01 6.5340527835913753e-01 2.0275527000055876e-01  5.0541018542466698e-01 5.7801978798138320e-01 1.8650215003485399e-01  4.8941328321609529e-01 4.9167131971446787e-01 1.6980730264760277e-01  4.8848507413495806e-01 4.8562768014491220e-01 1.6905837329834569e-01  4.8844589451706127e-01 4.8465339123707801e-01 1.6931388288171556e-01  4.8566964413002878e-01 4.6703964035016476e-01 1.6714236537118182e-01  4.8820062311865886e-01 4.8318407284609244e-01 1.6918261235083729e-01  4.8713975390883413e-01 4.7650027262278061e-01 1.6830988950099690e-01  4.8656961846898300e-01 4.7616046796692590e-01 1.6932672485691072e-01  4.9796736489309334e-01 5.4125677699796060e-01 1.7723736640143439e-01  5.0033556352622677e-01 5.5511860885650632e-01 1.7872802235551791e-01  5.0222878071389310e-01 5.6492395589802002e-01 1.8056388707851789e-01  4.9989178633279496e-01 5.5273439735125540e-01 1.7825993761515416e-01  4.9959297258804081e-01 5.5123988874869767e-01 1.7799193523261345e-01  4.9899652481537338e-01 5.4813606648410074e-01 1.7737093618595035e-01  4.9899547342811046e-01 5.4812996549947202e-01 1.7737020325600869e-01  4.9906094657220579e-01 5.4835197187507589e-01 1.7751705180096738e-01  4.9719975099651215e-01 5.3800339026177157e-01 1.7591427977588270e-01  4.9366998853712796e-01 5.1734920536253293e-01 1.7316296554163355e-01  4.9092149739383301e-01 5.0103816862259620e-01 1.7080509927594942e-01  4.9022206026552978e-01 4.9690028607823428e-01 1.7018198549636041e-01  4.9018926018790582e-01 4.9662789041077365e-01 1.7016002372221928e-01  4.9308099662373095e-01 5.1375459241128019e-01 1.7276295605693903e-01  4.9640542204498822e-01 5.3270722902068024e-01 1.7576846323672202e-01  5.0544206948058790e-01 5.8128025220897039e-01 1.8359656190357421e-01  5.0509880874243596e-01 5.7957245503331645e-01 1.8325243582611614e-01  5.0484772583123194e-01 5.7835948706783757e-01 1.8300417951414477e-01  5.0167418800106700e-01 5.6211105016795626e-01 1.7997843005191755e-01  5.0172227539879233e-01 5.6235487970707343e-01 1.8003868368511772e-01  5.0381161445998479e-01 5.7313684046949065e-01 1.8203714943623514e-01  5.0304613746080562e-01 5.6914203486872417e-01 1.8132157722708117e-01  4.9989959361757408e-01 5.5262471331146357e-01 1.7842861064014987e-01  4.9603972434061855e-01 5.3091007978785476e-01 1.7519124330278302e-01  4.9261138145177230e-01 5.1058092354144791e-01 1.7243237700289402e-01  4.9199967692563901e-01 5.0709019716470449e-01 1.7188924517640564e-01  4.9133155540052298e-01 5.0369210849070045e-01 1.7121048436118744e-01  4.9488964786356709e-01 5.2395993197468516e-01 1.7533816768062888e-01  5.0988879634882045e-01 5.9331738997474037e-01 1.9638710571850121e-01  5.3927672005824401e-01 6.9015728492152928e-01 2.4082014408134089e-01  5.6338957400426393e-01 7.3439242158142104e-01 2.8081169827612978e-01  5.7844949021883785e-01 7.5193964572462146e-01 3.0573255964392165e-01  5.8692053705542213e-01 7.5787042380070768e-01 3.2002673548365929e-01  5.9361239949076039e-01 7.6035619402283161e-01 3.3234748303306638e-01  5.7765898376647440e-01 7.5232158352753675e-01 3.0222006724647488e-01  5.4561846000286685e-01 7.0122121262552750e-01 2.5415755051135408e-01  5.3863090919225209e-01 6.8475600288137817e-01 2.4422030454761443e-01  5.0335939594450985e-01 5.1910520241616798e-01 2.2453748955931144e-01  4.6289834874788088e-01 1.5915619354575095e-01 2.3835648372720722e-01  4.6190200507844831e-01 1.2554514126904140e-01 2.5158682372955576e-01  4.6329211024809563e-01 1.1979970317856534e-01 2.6340861881054822e-01  4.6837174621664091e-01 1.0240832615281253e-01 3.0489799471816970e-01  4.7529054234535567e-01 8.6285409861368123e-02 3.5747090094403322e-01  4.8302365132042924e-01 8.0630803850392854e-02 4.0865955482298777e-01  4.8431003820540930e-01 8.0446839454119692e-02 4.1665866518482575e-01  4.8451349616799616e-01 8.0440856005345271e-02 4.1790890013810100e-01  4.8457613529376342e-01 8.0443316209561300e-02 4.1829143331159713e-01  4.8464819144683480e-01 8.0448818818042847e-02 4.1873026073934294e-01  4.8464343049078085e-01 8.0447932079835582e-02 4.1870146653306761e-01  4.8468499373172114e-01 8.0454392292262408e-02 4.1895337133025928e-01  4.8469434989607346e-01 8.0456985493972399e-02 4.1900978087136009e-01  4.8469502246992524e-01 8.0457215318941580e-02 4.1901382765842726e-01  4.8468604740675986e-01 8.0454863368049800e-02 4.1895966697687304e-01  4.8469495013044744e-01 8.0457213879202683e-02 4.1901338977137920e-01  4.8469523512158214e-01 8.0457342745817534e-02 4.1901510112182533e-01  4.8469529571845715e-01 8.0457375264851833e-02 4.1901546436869386e-01  4.8469531680306305e-01 8.0457391749751639e-02 4.1901559045473502e-01  4.8469531786732373e-01 8.0457393050563902e-02 4.1901559680874023e-01  4.8469531799795040e-01 8.0457393450303755e-02 4.1901559759256796e-01  4.8469531796730608e-01 8.0457393380680559e-02 4.1901559740914363e-01  4.8469531793010762e-01 8.0457393279561973e-02 4.1901559718617420e-01  4.8469531789463915e-01 8.0457393158830756e-02 4.1901559697310525e-01  4.8469531766585394e-01 8.0457392653746504e-02 4.1901559560374774e-01  4.8469531728386572e-01 8.0457391972215200e-02 4.1901559331989618e-01  4.8469531671318949e-01 8.0457391077757248e-02 4.1901558990911530e-01  4.8469531590705761e-01 8.0457389972242388e-02 4.1901558509235287e-01  4.8469531483404732e-01 8.0457388660475193e-02 4.1901557868172351e-01  4.8469531345121192e-01 8.0457387136725678e-02 4.1901557042004861e-01  4.8469531169931168e-01 8.0457385381671451e-02 4.1901555995236484e-01  4.8469530955144519e-01 8.0457383400403884e-02 4.1901554711659816e-01  4.8469530701217917e-01 8.0457381213386150e-02 4.1901553193886315e-01  4.8469530402750594e-01 8.0457378800134746e-02 4.1901551409482390e-01  4.8469530059007243e-01 8.0457376169507794e-02 4.1901549353909956e-01  4.8469529666048672e-01 8.0457373311466032e-02 4.1901547003430717e-01  4.8469529223263219e-01 8.0457370229766859e-02 4.1901544354264653e-01  4.8469528734089723e-01 8.0457366948725004e-02 4.1901541426897837e-01  4.8469527632078196e-01 8.0457359882744037e-02 4.1901534830135478e-01  4.8469527028408410e-01 8.0457356161221669e-02 4.1901531215498322e-01  4.8469526365769638e-01 8.0457352182920369e-02 4.1901527246992093e-01  4.8469525631025689e-01 8.0457347888239661e-02 4.1901522845755212e-01  4.8469524818691279e-01 8.0457343257532843e-02 4.1901517978786967e-01  4.8469523917392626e-01 8.0457338246380919e-02 4.1901512577723854e-01  4.8469522922619124e-01 8.0457332843269613e-02 4.1901506615367734e-01  4.8469521817068378e-01 8.0457326983339073e-02 4.1901499987683682e-01  4.8469520597749277e-01 8.0457320665239460e-02 4.1901492676546265e-01  4.8469519239998082e-01 8.0457313802615005e-02 4.1901484533544298e-01  4.8469517737004958e-01 8.0457306383367025e-02 4.1901475517526476e-01  4.8469516083499697e-01 8.0457298403865660e-02 4.1901465596551368e-01  4.8469514265503311e-01 8.0457289832449472e-02 4.1901454686207895e-01  4.8469512268786791e-01 8.0457280640435766e-02 4.1901442700502523e-01  4.8469510079347583e-01 8.0457270806444228e-02 4.1901429554669056e-01  4.8469507694691805e-01 8.0457260358652624e-02 4.1901415233031863e-01  4.8469505115875500e-01 8.0457249344515716e-02 4.1901399741130829e-01  4.8469502351197408e-01 8.0457237843704732e-02 4.1901383127943059e-01  4.8469499452354531e-01 8.0457226096882203e-02 4.1901365703509846e-01  4.8469496488484087e-01 8.0457214407069655e-02 4.1901347882808970e-01  4.8469493629122079e-01 8.0457203428881005e-02 4.1901330685239502e-01  4.8469490962053563e-01 8.0457193549657802e-02 4.1901314637615705e-01  4.8469486769673847e-01 8.0457179061233605e-02 4.1901289392649099e-01  4.8469480726713704e-01 8.0457159030578776e-02 4.1901252987156462e-01  4.8469471330460223e-01 8.0457128514411169e-02 4.1901196365675530e-01  4.8469458121061426e-01 8.0457086647128875e-02 4.1901116742143979e-01  4.8469440301940253e-01 8.0457031707070581e-02 4.1901009295418351e-01  4.8469415725466442e-01 8.0456958237958273e-02 4.1900861046652371e-01  4.8469332239408797e-01 8.0456720902351828e-02 4.1900357141940198e-01  4.8469286313416310e-01 8.0456597366009644e-02 4.1900079764210146e-01  4.8469235751243317e-01 8.0456466754301306e-02 4.1899774246975213e-01  4.8469178457482870e-01 8.0456324813126243e-02 4.1899427896986902e-01  4.8469112704192463e-01 8.0456168540249895e-02 4.1899030232933449e-01  4.8469037241507923e-01 8.0455996414459760e-02 4.1898573654771798e-01  4.8468950558054008e-01 8.0455806608200342e-02 4.1898048971779200e-01  4.8468851115441186e-01 8.0455597607481277e-02 4.1897446818653494e-01  4.8468736660540224e-01 8.0455367049048723e-02 4.1896753482667493e-01  4.8468605338332121e-01 8.0455113499467726e-02 4.1895957658257887e-01  4.8468455348481571e-01 8.0454836066204988e-02 4.1895048357297254e-01  4.8468284512331600e-01 8.0454533466775932e-02 4.1894012287982274e-01  4.8468090768609678e-01 8.0454205085456323e-02 4.1892836855354820e-01  4.8467869705597960e-01 8.0453847956155261e-02 4.1891495151453956e-01  4.8467620541776296e-01 8.0453463636420169e-02 4.1889982341832882e-01  4.8467339528452930e-01 8.0453051175142079e-02 4.1888275507626249e-01  4.8467023947383647e-01 8.0452610903509858e-02 4.1886357994072093e-01  4.8466672175420433e-01 8.0452145207010800e-02 4.1884219777611720e-01  4.8466277886958908e-01 8.0451652237419957e-02 4.1881822178100103e-01  4.8465841501022239e-01 8.0451137895244107e-02 4.1879167547537788e-01  4.8465356512086666e-01 8.0450602862278398e-02 4.1876215995621724e-01  4.8464828113828390e-01 8.0450057402891850e-02 4.1872998945842688e-01  4.8464255654544863e-01 8.0449509563334423e-02 4.1869512074739884e-01  4.8463644838338893e-01 8.0448972609278344e-02 4.1865789789083485e-01  4.8462408037920629e-01 8.0448041088528946e-02 4.1858246708991942e-01  4.8461503888479196e-01 8.0447465153064820e-02 4.1852728157417535e-01  4.8460407810062961e-01 8.0446847511777886e-02 4.1846034733652593e-01  4.8459133252530445e-01 8.0446220636296265e-02 4.1838247402319423e-01  4.8457648824242205e-01 8.0445616627283140e-02 4.1829172102913381e-01  4.8455973842729605e-01 8.0445065823249395e-02 4.1818925742720420e-01  4.8454089708309223e-01 8.0444602729817488e-02 4.1807392454785486e-01  4.8451985654471386e-01 8.0444267004496611e-02 4.1794504075684868e-01  4.8449651031215490e-01 8.0444103387502019e-02 4.1780192807624217e-01  4.8447076958769469e-01 8.0444162921927284e-02 4.1764401279803570e-01  4.8444272181686315e-01 8.0444483282809690e-02 4.1747180871195189e-01  4.8441239606643477e-01 8.0445109242366336e-02 4.1728546676755451e-01  4.8437988695326201e-01 8.0446075636775416e-02 4.1708554454671942e-01  4.8434507239738250e-01 8.0447400627136983e-02 4.1687127942768343e-01  4.8427519183685058e-01 8.0450353173595501e-02 4.1644102949711803e-01  4.8425387908391571e-01 8.0451127735349626e-02 4.1630987649184042e-01  4.8423788756040342e-01 8.0451661548784706e-02 4.1621148814333209e-01  4.8422684206574118e-01 8.0451895181543373e-02 4.1614359893277408e-01  4.8421963916779759e-01 8.0451905764695672e-02 4.1609939649344962e-01  4.8421704017422590e-01 8.0451502784906356e-02 4.1608366486527559e-01  4.8421627617428153e-01 8.0451088375928598e-02 4.1607918406382238e-01  4.8421938163660927e-01 8.0450275154528503e-02 4.1609866456971245e-01  4.8422445600018332e-01 8.0449324159816135e-02 4.1613029745531444e-01  4.8423105052318355e-01 8.0448264908926967e-02 4.1617131602343416e-01  4.8423875462227639e-01 8.0447119156420221e-02 4.1621919243064276e-01  4.8424671824822330e-01 8.0445980978564535e-02 4.1626866094181442e-01  4.8425375479114674e-01 8.0444995557091420e-02 4.1631236236522784e-01  4.8425886540101337e-01 8.0444284608050920e-02 4.1634410222858864e-01  4.8425785970162361e-01 8.0444440738850445e-02 4.1633784255046929e-01  4.8424743987861796e-01 8.0445992775299680e-02 4.1627304455944469e-01  4.8422810584064890e-01 8.0448986324118496e-02 4.1615272916174095e-01  4.8419833240323829e-01 8.0453846579400981e-02 4.1596726942221185e-01  4.8415650821417239e-01 8.0461145856580679e-02 4.1570640502955442e-01  4.8410110588392508e-01 8.0471599572239039e-02 4.1536028258996160e-01  4.8402992384447385e-01 8.0486275143872424e-02 4.1491466597163190e-01  4.8394099692533199e-01 8.0506445501880006e-02 4.1435660095237220e-01  4.8383193581548234e-01 8.0533814121038286e-02 4.1367020567288115e-01  4.8369893021961397e-01 8.0570942877948276e-02 4.1283025114542382e-01  4.8353828434732604e-01 8.0620860358681254e-02 4.1181182295349994e-01  4.8334575064761948e-01 8.0687404565345081e-02 4.1058599210778968e-01  4.8311531418780718e-01 8.0775865482780693e-02 4.0911192056781720e-01  4.8283862159777391e-01 8.0893655562618377e-02 4.0733290829974278e-01  4.8250399117255782e-01 8.1051344067622932e-02 4.0516967271528898e-01  4.8209417162502044e-01 8.1264581988338053e-02 4.0250540197433982e-01  4.8157774184809293e-01 8.1561395003944631e-02 3.9912806687518970e-01  4.8087103142001786e-01 8.2012962246831952e-02 3.9447552985200035e-01  4.7834026479651542e-01 8.3947795631602942e-02 3.7760507990283942e-01  4.7731230140197511e-01 8.4889020062102111e-02 3.7065303935603378e-01  4.7638636875373069e-01 8.5846386919532919e-02 3.6432271116114617e-01  4.7551159765641166e-01 8.6867364023946028e-02 3.5826985902264996e-01  4.7467700052922918e-01 8.7970338746362758e-02 3.5241543870804304e-01  4.7387941830270497e-01 8.9159712170515701e-02 3.4673772222452770e-01  4.7312839128294792e-01 9.0430103404520498e-02 3.4129999535422395e-01  4.7243297400139905e-01 9.1762260772247681e-02 3.3617097439217009e-01  4.7180978875285345e-01 9.3115825176897218e-02 3.3147918820827588e-01  4.7127969797425884e-01 9.4419530159984347e-02 3.2739791486097547e-01  4.7087050036018557e-01 9.5557898098706393e-02 3.2416970409145640e-01  4.7048531301827551e-01 9.6962199305930016e-02 3.2093687784094238e-01  4.7017942390775413e-01 9.8417261141397205e-02 3.1817324564871186e-01  4.6977629084854206e-01 1.0053964757824546e-01 3.1441554588393156e-01  4.6928825196868518e-01 1.0340580362905513e-01 3.0969978618298527e-01  4.6871262625115134e-01 1.0722283521751624e-01 3.0389112728708156e-01  4.6801447909731425e-01 1.1254271690399832e-01 2.9645067096890254e-01  4.6603472973003024e-01 1.3268069093888057e-01 2.7240970007048193e-01  4.6541343694084997e-01 1.4214723186198155e-01 2.6301289379190895e-01  4.6498918534256450e-01 1.5144960818220335e-01 2.5491669370391296e-01  4.6472539436519839e-01 1.6099592468865426e-01 2.4765038480759677e-01  4.6460997183065078e-01 1.7095518898476289e-01 2.4103068753403986e-01  4.6463839769849546e-01 1.8140931619709572e-01 2.3496939277158252e-01  4.6481186334694741e-01 1.9241476193243576e-01 2.2942580327446604e-01  4.6513062691612034e-01 2.0401594524721187e-01 2.2435826987161739e-01  4.6559461228433752e-01 2.1624650667312825e-01 2.1972761447737724e-01  4.6620467690622136e-01 2.2914106543684667e-01 2.1549718871189300e-01  4.6695790971285189e-01 2.4271974196625662e-01 2.1161599593366665e-01  4.6786112955502235e-01 2.5705937239101073e-01 2.0804909969540009e-01  4.6891556376550569e-01 2.7223065631225962e-01 2.0473153063910327e-01  4.7013584735373126e-01 2.8843520145740442e-01 2.0158625146058753e-01  4.7156885126528086e-01 3.0624730575437265e-01 1.9847422774377563e-01  4.7533894276956112e-01 3.4967952480770670e-01 1.9171962361430947e-01  4.7683453937647891e-01 3.6592279619432949e-01 1.8939057070015861e-01  4.7815549599880114e-01 3.7978287865954780e-01 1.8750374059581265e-01  4.7936113774713252e-01 3.9202083884192618e-01 1.8593850779168933e-01  4.8047855137694284e-01 4.0300532458734162e-01 1.8463869563641816e-01  4.8148295012276188e-01 4.1259955146226057e-01 1.8358831503950115e-01  4.8239443071973592e-01 4.2100459392612527e-01 1.8278682219717135e-01  4.8317625861096519e-01 4.2800870541903691e-01 1.8220404611854055e-01  4.8380907988119948e-01 4.3348975612468654e-01 1.8183973274214904e-01  4.8459816250923965e-01 4.3979622781583072e-01 1.8171911549450115e-01  4.8530561799243094e-01 4.4504360963782730e-01 1.8186529940532323e-01  4.8620989320908353e-01 4.5156856869042816e-01 1.8214707193404739e-01  4.8726857522380823e-01 4.5902165490983987e-01 1.8255977248067431e-01  4.8844880862297169e-01 4.6713474661975141e-01 1.8309581930546992e-01  4.8973069406714309e-01 4.7574537233160002e-01 1.8374240020919264e-01  4.9109151309942850e-01 4.8468440449055145e-01 1.8448481487417767e-01  4.9251422895814173e-01 4.9382905314594466e-01 1.8530753840407299e-01  4.9398528901802513e-01 5.0308916372057699e-01 1.8619136570831671e-01  4.9548958314620017e-01 5.1236686242438356e-01 1.8712034827479151e-01  4.9701226838165402e-01 5.2157175447378390e-01 1.8808073464824410e-01  4.9853986928120236e-01 5.3062669630761816e-01 1.8905874239999423e-01  5.0005927916679560e-01 5.3946222410886602e-01 1.9004000759790354e-01  5.0155809328230927e-01 5.4801574536494335e-01 1.9101476699668163e-01  5.0302302026516643e-01 5.5622316799818516e-01 1.9197205314738605e-01  5.0443963278511694e-01 5.6401872992188151e-01 1.9290079343561467e-01  5.0579078708985292e-01 5.7132566916183447e-01 1.9379033694207171e-01  5.0704731263536629e-01 5.7800723398750220e-01 1.9462147516782993e-01  5.0923129948411328e-01 5.8932369909694304e-01 1.9608679063489576e-01  5.1043124717944521e-01 5.9538221214562104e-01 1.9690260076991928e-01  5.1164952189869228e-01 6.0143307835727378e-01 1.9773270887682953e-01  5.1285495711063478e-01 6.0733053429120953e-01 1.9855568485581260e-01  5.1403365036487636e-01 6.1300932839234656e-01 1.9935938136590847e-01  5.1517461271921627e-01 6.1842616811403939e-01 2.0013390938110817e-01  5.1627113109109868e-01 6.2356305542658552e-01 2.0087528340199379e-01  5.1731460146837283e-01 6.2838679142189235e-01 2.0157557115446567e-01  5.1830116542696913e-01 6.3289276129495053e-01 2.0223212230241278e-01  5.1922634331390138e-01 6.3707166669846682e-01 2.0284119570982950e-01  5.2008733428545961e-01 6.4092204626833149e-01 2.0340124245099406e-01  5.2088191820579233e-01 6.4444478009509742e-01 2.0391040880808597e-01  5.2160766913897183e-01 6.4763964825530762e-01 2.0436619234703188e-01  5.2226423422571955e-01 6.5051470325384153e-01 2.0476861734196639e-01  5.2285077118986234e-01 6.5307483027492597e-01 2.0511700398732685e-01  5.2336656419248762e-01 6.5532473263030422e-01 2.0541067516866482e-01  5.2381152505420425e-01 6.5727098308320431e-01 2.0564936357540162e-01  5.2418603124603680e-01 6.5892119395503335e-01 2.0583315786957035e-01  5.2449038673543980e-01 6.6028176012473372e-01 2.0596197543446823e-01  5.2472480124565846e-01 6.6135767573427184e-01 2.0603576617056643e-01  5.2489058434040958e-01 6.6215741037977072e-01 2.0605541787390427e-01  5.2498792551700357e-01 6.6268416133860053e-01 2.0602071090858054e-01  5.2501758636922735e-01 6.6294254788039453e-01 2.0593201171183489e-01  5.2498040443810756e-01 6.6293658906883268e-01 2.0578981052007111e-01  5.2487718479564538e-01 6.6266900407386786e-01 2.0559459774477065e-01  5.2470782706887464e-01 6.6213891280592585e-01 2.0534605459558397e-01  5.2447424156160272e-01 6.6135166684722169e-01 2.0504577511061919e-01  5.2417678144757429e-01 6.6030666142271055e-01 2.0469387638389769e-01  5.2381486788980092e-01 6.5899511670726763e-01 2.0429008345663974e-01  5.2338768470