<?xml version="1.0"?>
<VTKFile type="UnstructuredGrid"  version="0.1"  >
<UnstructuredGrid>
<Piece  NumberOfPoints="26111" NumberOfCells="51284">
<Points>
<DataArray  type="Float64"  NumberOfComponents="3"  format="ascii">239.8 188 0  250.2 180 0  258.2 172.4 0  257 169.4 0  259.9 157.4 0  258.7 150.3 0  261 143.5 0  251.7 144.4 0  250 138.7 0  247 138.1 0  245.2 130.8 0  247.3 126.4 0  242.7 118.6 0  231.2 107.7 0  226 102.4 0  226.5 93.90000000000001 0  224.5 91.19999999999999 0  224.5 84.09999999999999 0  234.5 73.80000000000001 0  228.4 68.90000000000001 0  230 70 0  233.4 68 0  222.7 61.5 0  220.6 45.5 0  223.4 49.40000000000001 0  224 47 0  221.8 43.09999999999999 0  221 38.40000000000001 0  219.5 38.5 0  219.4 41.69999999999999 0  217.1 36.90000000000001 0  209.7 36 0  209.5 31.69999999999999 0  205.1 29.90000000000001 0  201.5 30.40000000000001 0  199.2 38.69999999999999 0  201.8 41.40000000000001 0  194.8 53.80000000000001 0  196.1 57.69999999999999 0  193 59 0  191.4 66.09999999999999 0  193.5 66.5 0  194.1 64.40000000000001 0  195.6 64.69999999999999 0  195.4 72.40000000000001 0  199.5 77.30000000000001 0  197.7 86.90000000000001 0  200.6 87.5 0  201.5 91 0  198 94.80000000000001 0  198.6 100 0  197.3 105.4 0  198 109.5 0  197 112.7 0  198.3 116.1 0  201.3 122 0  207.2 121 0  208.1 126.7 0  205.6 127.9 0  209.1 134.9 0  210.9 144.4 0  210.1 147.9 0  213 148.4 0  215.4 149.3 0  215.1 152.8 0  219.9 159.7 0  220.3 163.2 0  218.7 164.9 0  219.9 166.7 0  221.9 169.7 0  220 170.3 0  224.9 174.7 0  229.8 177.4 0  229.7 181 0  228 172.9 0  239 178 0  240.4 180 0  239 181.5 0  241.2 185.9 0  242.95 187.99 0  240.2683998954481 187.9985130162049 0  240.8064499792029 187.996804920701 0  241.4245072212198 187.9948428342184 0  242.1344685938113 187.9925889885911 0  243.6047967303995 187.2683688447046 0  244.2300238016934 186.5793254930303 0  244.8270167459974 185.9213980964801 0  245.3970504076993 185.2931816886183 0  245.9413423691472 184.693334409726 0  246.4610548009146 184.1205754676817 0  246.9572980162405 183.5736812207225 0  247.4311315258271 183.051484014985 0  247.8835676021671 182.5528682563703 0  248.3155723408242 182.07676924094 0  248.728068439607 181.6221700920744 0  249.1219369108593 181.1880998734116 0  249.4980188478629 180.7736316421483 0  249.8571175669105 180.377880088329 0  250.547826086972 179.6695652173766 0  250.895652173944 179.3391304347532 0  251.2434782609215 179.0086956521245 0  251.5913043478991 178.6782608694958 0  251.9391304348711 178.3478260868724 0  252.2869565218431 178.017391304249 0  252.6347826088151 177.6869565216256 0  252.9826086957927 177.3565217389969 0  253.3304347827705 177.0260869563681 0  253.6782608697478 176.6956521737396 0  254.0260869567192 176.3652173911168 0  254.3739130436896 176.0347826084949 0  254.721739130661 175.704347825872 0  255.0695652176383 175.3739130432436 0  255.4173913046161 175.0434782606147 0  255.7652173915936 174.713043477986 0  256.113043478541 174.382608695386 0  256.4608695654481 174.0521739128243 0  256.8086956523607 173.7217391302573 0  257.1565217392733 173.3913043476904 0  257.5043478261859 173.0608695651234 0  257.8521739130929 172.7304347825617 0  258.0285714285786 171.9714285714466 0  257.8571428571497 171.5428571428741 0  257.6857142857176 171.1142857142939 0  257.5142857142855 170.6857142857137 0  257.3428571428534 170.2571428571335 0  257.1714285714214 169.8285714285533 0  257.1160000000011 168.9199999999954 0  257.232000000001 168.4399999999959 0  257.3480000000009 167.9599999999964 0  257.4640000000007 167.4799999999969 0  257.5800000000006 166.9999999999974 0  257.6960000000005 166.5199999999979 0  257.8120000000004 166.0399999999985 0  257.9280000000002 165.559999999999 0  258.044 165.0799999999997 0  258.1599999999999 164.6000000000005 0  258.2759999999997 164.1200000000013 0  258.3919999999995 163.6400000000021 0  258.5080000000005 163.1599999999978 0  258.6240000000003 162.6799999999987 0  258.7400000000001 162.1999999999995 0  258.8559999999999 161.7200000000003 0  258.9719999999998 161.240000000001 0  259.0879999999996 160.7600000000015 0  259.2039999999995 160.280000000002 0  259.3199999999994 159.8000000000025 0  259.4359999999992 159.320000000003 0  259.5519999999991 158.8400000000035 0  259.667999999999 158.360000000004 0  259.7839999999989 157.8800000000045 0  259.8200000000007 156.9266666666707 0  259.7400000000017 156.4533333333432 0  259.660000000002 155.980000000012 0  259.580000000001 155.5066666666725 0  259.5000000000012 155.0333333333406 0  259.4200000000022 154.560000000013 0  259.3400000000019 154.0866666666782 0  259.2600000000017 153.6133333333434 0  259.1800000000014 153.1400000000086 0  259.1000000000006 152.6666666666702 0  259.0200000000008 152.1933333333383 0  258.9399999999998 151.7199999999988 0  258.8599999999983 151.2466666666568 0  258.7799999999993 150.7733333333293 0  258.8533333333361 149.8466666666585 0  259.0066666666722 149.3933333333169 0  259.160000000005 148.9399999999853 0  259.3133333333344 148.4866666666637 0  259.4666666666643 148.0333333333404 0  259.6199999999965 147.5800000000104 0  259.7733333333283 147.1266666666815 0  259.9266666666616 146.6733333333484 0  260.0799999999934 146.2200000000195 0  260.233333333329 145.7666666666796 0  260.3866666666589 145.3133333333563 0  260.5399999999917 144.8600000000247 0  260.6933333333278 144.4066666666831 0  260.8466666666639 143.9533333333416 0  260.5105263158154 143.5473684210501 0  260.0210526316203 143.5947368421013 0  259.5315789474334 143.6421052631516 0  259.0421052632076 143.6894736842057 0  258.5526315789895 143.7368421052591 0  258.0631578947787 143.7842105263117 0  257.573684210553 143.8315789473658 0  257.0842105263371 143.878947368419 0  256.5947368421236 143.9263157894719 0  256.1052631578984 143.973684210526 0  255.6157894736727 144.0210526315801 0  255.1263157894516 144.0684210526337 0  254.6368421052409 144.1157894736863 0  254.1473684210308 144.1631578947389 0  253.6578947368314 144.2105263157905 0  253.1684210526315 144.2578947368421 0  252.6789473684208 144.3052631578947 0  252.1894736842217 144.3526315789463 0  251.5583333333298 143.9249999999882 0  251.4166666666658 143.4499999999971 0  251.2750000000023 142.9750000000076 0  251.1333333333388 142.5000000000182 0  250.9916666666717 142.0250000000168 0  250.8500000000015 141.5500000000051 0  250.7083333333314 141.0749999999933 0  250.5666666666612 140.5999999999818 0  250.4249999999977 140.1249999999923 0  250.2833333333342 139.6500000000029 0  250.1416666666702 139.1750000000117 0  249.5714285714283 138.6142857142856 0  249.142857142857 138.5285714285714 0  248.7142857142871 138.4428571428574 0  248.285714285715 138.357142857143 0  247.857142857143 138.2714285714286 0  247.4285714285717 138.1857142857144 0  246.8874999999995 137.6437499999979 0  246.7750000000005 137.1875000000023 0  246.662500000001 136.7312500000041 0  246.5500000000021 136.2750000000085 0  246.4375000000032 135.8187500000129 0  246.3250000000036 135.3625000000147 0  246.2125000000047 134.9062500000191 0  246.1000000000042 134.450000000017 0  245.9875000000011 133.9937500000044 0  245.8750000000022 133.5375000000088 0  245.7625000000026 133.0812500000106 0  245.650000000003 132.6250000000124 0  245.5375000000041 132.1687500000168 0  245.4250000000046 131.7125000000187 0  245.3125000000031 131.2562500000126 0  245.4099999999997 130.3600000000006 0  245.619999999996 129.9200000000084 0  245.8300000000029 129.4799999999939 0  246.0399999999992 129.0400000000017 0  246.2499999999989 128.6000000000023 0  246.4599999999987 128.1600000000028 0  246.6699999999966 127.720000000007 0  246.8800000000001 127.2799999999997 0  247.0899999999962 126.840000000008 0  247.0578947368415 125.9894736842094 0  246.815789473683 125.578947368419 0  246.5736842105246 125.1684210526286 0  246.3315789473688 124.7578947368428 0  246.0894736842088 124.3473684210496 0  245.847368421051 123.9368421052603 0  245.6052631578944 123.5263157894731 0  245.3631578947421 123.1157894736931 0  245.121052631583 122.7052631579015 0  244.8789473684243 122.2947368421108 0  244.6368421052652 121.8842105263193 0  244.3947368421094 121.4736842105334 0  244.1526315789515 121.0631578947438 0  243.9105263157933 120.6526315789539 0  243.6684210526312 120.2421052631572 0  243.4263157894754 119.8315789473714 0  243.184210526317 119.421052631581 0  242.9421052631585 119.0105263157906 0  242.3406250000005 118.2593750000005 0  241.9812499999996 117.9187499999997 0  241.6218750000002 117.5781250000002 0  241.2625000000007 117.2375000000007 0  240.9031250000012 116.8968750000012 0  240.5437500000017 116.5562500000017 0  240.1843750000022 116.2156250000021 0  239.8250000000041 115.875000000004 0  239.4656250000061 115.5343750000058 0  239.1062500000066 115.1937500000063 0  238.7468750000071 114.8531250000068 0  238.3875000000076 114.5125000000072 0  238.0281250000081 114.1718750000077 0  237.6687500000087 113.8312500000082 0  237.3093750000078 113.4906250000074 0  236.9500000000083 113.1500000000079 0  236.5906250000088 112.8093750000084 0  236.231250000008 112.4687500000076 0  235.8718750000085 112.1281250000081 0  235.512500000009 111.7875000000085 0  235.1531250000068 111.4468750000064 0  234.7937500000045 111.1062500000043 0  234.4343750000036 110.7656250000035 0  234.0750000000042 110.4250000000039 0  233.7156250000061 110.0843750000057 0  233.3562500000066 109.7437500000062 0  232.9968750000043 109.4031250000041 0  232.6375000000021 109.062500000002 0  232.2781250000026 108.7218750000025 0  231.9187500000031 108.381250000003 0  231.5593750000022 108.0406250000021 0  230.8533333333311 107.3466666666643 0  230.5066666666661 106.9933333333328 0  230.1599999999976 106.6399999999975 0  229.8133333333373 106.2866666666707 0  229.4666666666717 105.9333333333385 0  229.1200000000069 105.580000000007 0  228.7733333333389 105.2266666666724 0  228.4266666666694 104.8733333333361 0  228.0800000000003 104.5200000000003 0  227.7333333333338 104.1666666666672 0  
[...]
<PointData  Vectors="f_17"> 
<DataArray  type="Float64"  Name="f_17"  NumberOfComponents="3" format="ascii">4.6530847987336410e-01 9.8715079942813949e-02 2.8531005837801660e-01  4.6530847987345753e-01 9.8715079942837888e-02 2.8531005837846185e-01  4.6530847987544843e-01 9.8715079941998157e-02 2.8531005838843732e-01  4.6530847988516416e-01 9.8715079930806568e-02 2.8531005843944834e-01  4.6530847941633724e-01 9.8715074435192729e-02 2.8531005690962069e-01  4.6530840420731245e-01 9.8715019508483798e-02 2.8530964666460995e-01  4.6530840598256595e-01 9.8715012245964087e-02 2.8530965894959037e-01  4.6528973502385834e-01 9.8730799265400668e-02 2.8519416697652605e-01  4.6511928093115290e-01 9.8989311868943497e-02 2.8406485782323498e-01  4.6465194880023830e-01 1.0010560114278257e-01 2.8070122634340999e-01  4.6054429539483716e-01 1.3048342236655508e-01 2.3926950981476469e-01  4.6012006851550502e-01 1.7072484661950577e-01 2.1394072081821419e-01  4.8883851034783765e-01 4.1007283738708794e-01 2.2946860708304648e-01  5.2476540727518695e-01 6.0416758568098028e-01 2.6433613164320513e-01  4.9580286166959531e-01 5.1665644007073475e-01 1.8825193087381603e-01  5.0879357277754644e-01 5.8721620395353913e-01 1.9620669296504423e-01  5.1605642739063695e-01 6.2012839485841698e-01 2.0359555699382076e-01  5.2071244876829448e-01 6.4185392705134658e-01 2.0639804367178860e-01  5.0447031875486481e-01 5.7465591949582173e-01 1.8530563064382979e-01  5.0937755339443547e-01 5.9703742722356057e-01 1.9146713757528736e-01  5.0713193835821924e-01 5.8702972809606624e-01 1.8859232138244769e-01  5.0537366017084528e-01 5.8873895993437431e-01 1.9593066926099204e-01  5.3179323030781755e-01 6.7842362291984148e-01 2.2233667147452077e-01  5.3062966201118689e-01 6.7816074157924233e-01 2.1767492575093492e-01  5.3988466681641500e-01 7.0218296342008646e-01 2.3254191552275552e-01  5.2748317069138972e-01 6.6768425361929995e-01 2.1238453747293917e-01  5.2690941359236498e-01 6.6776781719912282e-01 2.1169493089534569e-01  5.2310583259129917e-01 6.5607552975874794e-01 2.0565701961103655e-01  5.2310913550787319e-01 6.5609571292355506e-01 2.0566031550644848e-01  5.2593811470762974e-01 6.6465614013856655e-01 2.1021082175836769e-01  5.2447351459600011e-01 6.5854606427001172e-01 2.0844904721307927e-01  5.1820745908789467e-01 6.3486834966862604e-01 2.0143428115697179e-01  5.1222893318152396e-01 6.1099310773728621e-01 1.9377686884316925e-01  5.1030805430856774e-01 6.0479422135666761e-01 1.9096036781915707e-01  5.1014507344689641e-01 6.0293169014596493e-01 1.9091023866000686e-01  5.1641825019143539e-01 6.2752668394572098e-01 1.9942680900245444e-01  5.2437726807636731e-01 6.5531212028011732e-01 2.1056609986135269e-01  5.4554955567274677e-01 7.1639531607698925e-01 2.3984514395293965e-01  5.4472731319008549e-01 7.1367727552120630e-01 2.3881946478932772e-01  5.4419668390830211e-01 7.1292278335787684e-01 2.3797580383623762e-01  5.3663255845778923e-01 6.9360148038082992e-01 2.2653227281858501e-01  5.3680680555514593e-01 6.9342883317811443e-01 2.2693899805506618e-01  5.4160617585964432e-01 7.0706018607675514e-01 2.3397837118889517e-01  5.3994672865423921e-01 7.0051558520848067e-01 2.3190893699221246e-01  5.3255633494379284e-01 6.8368192058622346e-01 2.2020030123481882e-01  5.2710690224182666e-01 6.6803128942164469e-01 2.1188349953484983e-01  5.2711476248602096e-01 6.6620079319671099e-01 2.1222562347544732e-01  5.2623953571557214e-01 6.6327279237526515e-01 2.1204488096104035e-01  5.1961166890823263e-01 6.3507722242023790e-01 2.0680849873638354e-01  5.0810385367408906e-01 5.8552486275190641e-01 1.9505382917172684e-01  4.9721205162356946e-01 5.2828763321815486e-01 1.8520296304042322e-01  4.9406009001798179e-01 5.0028340389459691e-01 1.9208647311481492e-01  5.0785736412678162e-01 5.2712113755237389e-01 2.4664321565327260e-01  5.2078331696305369e-01 5.3057925330172839e-01 3.1506590357362846e-01  5.3072687662278795e-01 4.9916075666286874e-01 4.0047194337067715e-01  5.4033366149914175e-01 4.2764259409328498e-01 5.2441147610401884e-01  5.4137915255964841e-01 5.2199377217991128e-01 4.3000193459999159e-01  4.8852761105570042e-01 3.8128982437084818e-01 2.4875312078280395e-01  4.7442840065238062e-01 3.0887504090345319e-01 2.1588549304872345e-01  4.6154536580444222e-01 1.6270184034277549e-01 2.2750603871766539e-01  4.6447222753875606e-01 1.0048445384154962e-01 2.7947113904373011e-01  4.6496568913976355e-01 9.9190656305514532e-02 2.8307959346875078e-01  4.6501534175305648e-01 9.9109030553211630e-02 2.8341090361413845e-01  4.6516063976396638e-01 9.8890152036219287e-02 2.8436760368095249e-01  4.6528196046408093e-01 9.8733622511487387e-02 2.8514917275849155e-01  4.6530789995979344e-01 9.8714878012450449e-02 2.8530683546443519e-01  4.6530844690182982e-01 9.8715029531817544e-02 2.8530988701303295e-01  4.6530847571273926e-01 9.8715062922442989e-02 2.8531003907186209e-01  4.6530847875110187e-01 9.8715070831627560e-02 2.8531005400998621e-01  4.6530848017872944e-01 9.8715078009317905e-02 2.8531006030978590e-01  4.6530848024432547e-01 9.8715077891320252e-02 2.8531006067277020e-01  4.6530847995394059e-01 9.8715079824544069e-02 2.8531005880580307e-01  4.6530847987851948e-01 9.8715079939323547e-02 2.8531005840417878e-01  4.6530847987428975e-01 9.8715079942753053e-02 2.8531005838252238e-01  4.6530847995109109e-01 9.8715079792867394e-02 2.8531005879991378e-01  4.6530847987501700e-01 9.8715079942185077e-02 2.8531005838625245e-01  4.6530847987364043e-01 9.8715079942797865e-02 2.8531005837936307e-01  4.6530847987341822e-01 9.8715079942828410e-02 2.8531005837827417e-01  4.6530847987336627e-01 9.8715079942815476e-02 2.8531005837802670e-01  4.6530847987336443e-01 9.8715079942814282e-02 2.8531005837801793e-01  4.6530847987336404e-01 9.8715079942813949e-02 2.8531005837801671e-01  4.6530847987336421e-01 9.8715079942814060e-02 2.8531005837801698e-01  4.6530847987336427e-01 9.8715079942814116e-02 2.8531005837801732e-01  4.6530847987336432e-01 9.8715079942814199e-02 2.8531005837801771e-01  4.6530847987336488e-01 9.8715079942814601e-02 2.8531005837801965e-01  4.6530847987336554e-01 9.8715079942815198e-02 2.8531005837802298e-01  4.6530847987336660e-01 9.8715079942816003e-02 2.8531005837802798e-01  4.6530847987336821e-01 9.8715079942817030e-02 2.8531005837803508e-01  4.6530847987337026e-01 9.8715079942818362e-02 2.8531005837804491e-01  4.6530847987337309e-01 9.8715079942819861e-02 2.8531005837805795e-01  4.6530847987337687e-01 9.8715079942821637e-02 2.8531005837807544e-01  4.6530847987338159e-01 9.8715079942823636e-02 2.8531005837809797e-01  4.6530847987338747e-01 9.8715079942825745e-02 2.8531005837812595e-01  4.6530847987339474e-01 9.8715079942828007e-02 2.8531005837816059e-01  4.6530847987340357e-01 9.8715079942830297e-02 2.8531005837820261e-01  4.6530847987341423e-01 9.8715079942832490e-02 2.8531005837825313e-01  4.6530847987342661e-01 9.8715079942834599e-02 2.8531005837831280e-01  4.6530847987344098e-01 9.8715079942836459e-02 2.8531005837838197e-01  4.6530847987347507e-01 9.8715079942839068e-02 2.8531005837854684e-01  4.6530847987349472e-01 9.8715079942839623e-02 2.8531005837864198e-01  4.6530847987351703e-01 9.8715079942839679e-02 2.8531005837875040e-01  4.6530847987354268e-01 9.8715079942838804e-02 2.8531005837887508e-01  4.6530847987357177e-01 9.8715079942837111e-02 2.8531005837901757e-01  4.6530847987360541e-01 9.8715079942833933e-02 2.8531005837918166e-01  4.6530847987364338e-01 9.8715079942829353e-02 2.8531005837936851e-01  4.6530847987368723e-01 9.8715079942822734e-02 2.8531005837958356e-01  4.6530847987373691e-01 9.8715079942813852e-02 2.8531005837982842e-01  4.6530847987379420e-01 9.8715079942801931e-02 2.8531005838011114e-01  4.6530847987385959e-01 9.8715079942786110e-02 2.8531005838043488e-01  4.6530847987393381e-01 9.8715079942766196e-02 2.8531005838080281e-01  4.6530847987401808e-01 9.8715079942741160e-02 2.8531005838122137e-01  4.6530847987411378e-01 9.8715079942709741e-02 2.8531005838169771e-01  4.6530847987422241e-01 9.8715079942670342e-02 2.8531005838223977e-01  4.6530847987434504e-01 9.8715079942621867e-02 2.8531005838285295e-01  4.6530847987448259e-01 9.8715079942562275e-02 2.8531005838354317e-01  4.6530847987463608e-01 9.8715079942489847e-02 2.8531005838431461e-01  4.6530847987480334e-01 9.8715079942404055e-02 2.8531005838515844e-01  4.6530847987498158e-01 9.8715079942304634e-02 2.8531005838605988e-01  4.6530847987516061e-01 9.8715079942196624e-02 2.8531005838696871e-01  4.6530847987533708e-01 9.8715079942078482e-02 2.8531005838786783e-01  4.6530847987564306e-01 9.8715079941836897e-02 2.8531005838943901e-01  4.6530847987610979e-01 9.8715079941431194e-02 2.8531005839184975e-01  4.6530847987686008e-01 9.8715079940735501e-02 2.8531005839573714e-01  4.6530847987795670e-01 9.8715079939635492e-02 2.8531005840144463e-01  4.6530847987949947e-01 9.8715079937950173e-02 2.8531005840951768e-01  4.6530847988172391e-01 9.8715079935289052e-02 2.8531005842122836e-01  4.6530847988979174e-01 9.8715079924184504e-02 2.8531005846412871e-01  4.6530847989451030e-01 9.8715079916713133e-02 2.8531005848949631e-01  4.6530847989990370e-01 9.8715079907299469e-02 2.8531005851873226e-01  4.6530847990621493e-01 9.8715079895140986e-02 2.8531005855324659e-01  4.6530847991364299e-01 9.8715079879371601e-02 2.8531005859424341e-01  4.6530847992231728e-01 9.8715079859055102e-02 2.8531005864258924e-01  4.6530847993237318e-01 9.8715079833013780e-02 2.8531005869923481e-01  4.6530847994390834e-01 9.8715079799818500e-02 2.8531005876498450e-01  4.6530847995702956e-01 9.8715079757395477e-02 2.8531005884082117e-01  4.6530847997171959e-01 9.8715079703625030e-02 2.8531005892709244e-01  4.6530847998782021e-01 9.8715079636008410e-02 2.8531005902347872e-01  4.6530848000507896e-01 9.8715079551566803e-02 2.8531005912925633e-01  4.6530848002301523e-01 9.8715079446904469e-02 2.8531005924257485e-01  4.6530848004085645e-01 9.8715079316031004e-02 2.8531005936052434e-01  4.6530848005756070e-01 9.8715079155831789e-02 2.8531005947819876e-01  4.6530848007142711e-01 9.8715078959483435e-02 2.8531005958787076e-01  4.6530848008044995e-01 9.8715078720881241e-02 2.8531005968001732e-01  4.6530848008177167e-01 9.8715078433952816e-02 2.8531005974049128e-01  4.6530848007127062e-01 9.8715078086962060e-02 2.8531005974938767e-01  4.6530848004435588e-01 9.8715077674290996e-02 2.8531005968299517e-01  4.6530847999320063e-01 9.8715077180896699e-02 2.8531005950179655e-01  4.6530847991235930e-01 9.8715076606648619e-02 2.8531005917607460e-01  4.6530847979102719e-01 9.8715075941372743e-02 2.8531005864873499e-01  4.6530847961908983e-01 9.8715075183417739e-02 2.8531005786443897e-01  4.6530847910396628e-01 9.8715073491318084e-02 2.8531005539411713e-01  4.6530847859278268e-01 9.8715072150458244e-02 2.8531005286864480e-01  4.6530847784687851e-01 9.8715070449321332e-02 2.8531004912419849e-01  4.6530847681604814e-01 9.8715068390487687e-02 2.8531004387874104e-01  4.6530847536748504e-01 9.8715065892479664e-02 2.8531003640811026e-01  4.6530847343770354e-01 9.8715062984520180e-02 2.8531002634488561e-01  4.6530847088279248e-01 9.8715059625931981e-02 2.8531001288690649e-01  4.6530846753979976e-01 9.8715055801885096e-02 2.8530999511423139e-01  4.6530846321366753e-01 9.8715051512753657e-02 2.8530997191737206e-01  4.6530845767105716e-01 9.8715046783203628e-02 2.8530994195811299e-01  4.6530845073747884e-01 9.8715041689074703e-02 2.8530990421222308e-01  4.6530844218356499e-01 9.8715036321062960e-02 2.8530985733405573e-01  4.6530843180205261e-01 9.8715030806871190e-02 2.8530980008618234e-01  4.6530841938053108e-01 9.8715025248079333e-02 2.8530973120657510e-01  4.6530839229149668e-01 9.8715015015874569e-02 2.8530958024885256e-01  4.6530838401522490e-01 9.8715012114422601e-02 2.8530953401823028e-01  4.6530837769068206e-01 9.8715010121429164e-02 2.8530949858734461e-01  4.6530837353230126e-01 9.8715008849455679e-02 2.8530947525668943e-01  4.6530837103651068e-01 9.8715008151458297e-02 2.8530946120370670e-01  4.6530837121383983e-01 9.8715007862819296e-02 2.8530946227752552e-01  4.6530837181496570e-01 9.8715007997813187e-02 2.8530946560135345e-01  4.6530837493682153e-01 9.8715008362621690e-02 2.8530948325243677e-01  4.6530837909857847e-01 9.8715008934947460e-02 2.8530950676710876e-01  4.6530838410505176e-01 9.8715009637089443e-02 2.8530953506125883e-01  4.6530838980115413e-01 9.8715010384133078e-02 2.8530956728378548e-01  4.6530839563437965e-01 9.8715011102963213e-02 2.8530960030603708e-01  4.6530840077701613e-01 9.8715011705385700e-02 2.8530962943387272e-01  4.6530840453545391e-01 9.8715012111475528e-02 2.8530965073718917e-01  4.6530840366926141e-01 9.8715012121389209e-02 2.8530964577982282e-01  4.6530839523073075e-01 9.8715011843400702e-02 2.8530959765581915e-01  4.6530837888707094e-01 9.8715011796289512e-02 2.8530950421536611e-01  4.6530835222160777e-01 9.8715012768103100e-02 2.8530935125639190e-01  4.6530831192602196e-01 9.8715016170946218e-02 2.8530911916551849e-01  4.6530825377698765e-01 9.8715024220811770e-02 2.8530878268514798e-01  4.6530817133146268e-01 9.8715040530920298e-02 2.8530830314199263e-01  4.6530805661471036e-01 9.8715070331599528e-02 2.8530763224271416e-01  4.6530789854845456e-01 9.8715121483959833e-02 2.8530670253579599e-01  4.6530767987109983e-01 9.8715206684826112e-02 2.8530540860873704e-01  4.6530737880076778e-01 9.8715343720825660e-02 2.8530361637182278e-01  4.6530696581227632e-01 9.8715558540304310e-02 2.8530114289904729e-01  4.6530639789169731e-01 9.8715890586127480e-02 2.8529772058491781e-01  4.6530561098803702e-01 9.8716401509841553e-02 2.8529294900258206e-01  4.6530450828988423e-01 9.8717189034254027e-02 2.8528621988998348e-01  4.6530294007389111e-01 9.8718410276540852e-02 2.8527658848333115e-01  4.6530063419652307e-01 9.8720357692192062e-02 2.8526233272174290e-01  4.6529691170873527e-01 9.8723760328760804e-02 2.8523915598469296e-01  4.6527937669639513e-01 9.8741778469788141e-02 2.8512870202225765e-01  4.6527002359279618e-01 9.8752428411059065e-02 2.8506910574164795e-01  4.6525989709565313e-01 9.8764745445910226e-02 2.8500405943065721e-01  4.6524845503037621e-01 9.8779523568342159e-02 2.8492998752385196e-01  4.6523540364068489e-01 9.8797360841472739e-02 2.8484483928494952e-01  4.6522063287504956e-01 9.8818606959465385e-02 2.8474776081265424e-01  4.6520410075910001e-01 9.8843611785509281e-02 2.8463828007804870e-01  4.6518600259200488e-01 9.8872306988286182e-02 2.8451753698237109e-01  4.6516684418274873e-01 9.8904097886505740e-02 2.8438876715247907e-01  4.6514766961355697e-01 9.8937312883761383e-02 2.8425894908452676e-01  4.6513031417749690e-01 9.8968614719388684e-02 2.8414061711909744e-01  4.6510738600491974e-01 9.9013228863559663e-02 2.8398211500732651e-01  4.6508232061473087e-01 9.9065000670761821e-02 2.8380685718880228e-01  4.6504495382256456e-01 9.9144650145413765e-02 2.8354398928581070e-01  4.6499332054683512e-01 9.9258943726817414e-02 2.8317804546467190e-01  4.6492292099320104e-01 9.9421784692333440e-02 2.8267464711071050e-01  4.6482242330298446e-01 9.9666383452830437e-02 2.8194838317410176e-01  4.6442589108452698e-01 1.0073304738204253e-01 2.7901959793901054e-01  4.6423198640648100e-01 1.0131700652211048e-01 2.7754925571549433e-01  4.6403697598730598e-01 1.0195610641829586e-01 2.7603933225988986e-01  4.6383284467642993e-01 1.0268590950658660e-01 2.7442259894521642e-01  4.6361653531890534e-01 1.0353155162322837e-01 2.7266686312991478e-01  4.6338704276143894e-01 1.0451501307203306e-01 2.7075386779371252e-01  4.6314417287879828e-01 1.0566094601083521e-01 2.6866872232201178e-01  4.6288843284517717e-01 1.0699594710357331e-01 2.6639972930701272e-01  4.6262100183536159e-01 1.0854896233600722e-01 2.6393797248422085e-01  4.6234353260100974e-01 1.1035409467025041e-01 2.6127453476005874e-01  4.6205839988669450e-01 1.1244417348259356e-01 2.5840550275157892e-01  4.6176782636448171e-01 1.1487683695682482e-01 2.5531216825126624e-01  4.6147455471874405e-01 1.1770768560203441e-01 2.5197965829729840e-01  4.6118001026906419e-01 1.2103391985447606e-01 2.4836143505856725e-01  4.6088059879429538e-01 1.2505444237577049e-01 2.4432301216073124e-01  4.6024407013075735e-01 1.3624784566969181e-01 2.3423447559671140e-01  4.6004651082830172e-01 1.4100325192685934e-01 2.3037238787554434e-01  4.5991010531696780e-01 1.4544544052753150e-01 2.2704640734273046e-01  4.5982593146643091e-01 1.4975393015525351e-01 2.2410358801316294e-01  4.5979029242928665e-01 1.5400568819537888e-01 2.2147942582997734e-01  4.5979445073139058e-01 1.5805378499996647e-01 2.1920453669874984e-01  4.5984629590167320e-01 1.6199988416809044e-01 2.1727062127026103e-01  4.5992683298568932e-01 1.6558915956855130e-01 2.1570887490378576e-01  4.6002932842408328e-01 1.6869123900115598e-01 2.1455541243208442e-01  4.6027563577077224e-01 1.7314245822090746e-01 2.1349762649758289e-01  4.6059542456443664e-01 1.7762180730842400e-01 2.1286034265841469e-01  4.6105869704599362e-01 1.8363640810910792e-01 2.1219202127309941e-01  4.6166580546333363e-01 1.9103117500300881e-01 2.1156724773032209e-01  4.6242022114549164e-01 1.9970192469467149e-01 2.1104795726146450e-01  4.6333210568834882e-01 2.0963087204111208e-01 2.1068160623087626e-01  4.6440425074464897e-01 2.2073925307978570e-01 2.1050764272231992e-01  4.6564194719234436e-01 2.3297976355563793e-01 2.1055877944369830e-01  4.6705222097755678e-01 2.4632375317339436e-01 2.1086202522783581e-01  4.6863764525402535e-01 2.6070056071380626e-01 2.1144200882853173e-01  4.7039535255612935e-01 2.7600182140140639e-01 2.1231507088321824e-01  4.7232127187769785e-01 2.9211197480842510e-01 2.1349324164515848e-01  4.7440822751512796e-01 3.0889440896735471e-01 2.1498286581108786e-01  4.7664266857649462e-01 3.2617509318891785e-01 2.1678393576005961e-01  4.7900657728077356e-01 3.4375255783454089e-01 2.1889005992805066e-01  4.8147284077613045e-01 3.6137979250528779e-01 2.2128152441031279e-01  4.8399995327678630e-01 3.7874058171909170e-01 2.2391882181493000e-01  4.8651568766998476e-01 3.9534604596521794e-01 2.2672176398316587e-01  4.9134517537600231e-01 4.2523408971178001e-01 2.3262938406875250e-01  4.9425842026809963e-01 4.4210081863300449e-01 2.3648122242759309e-01  4.9739248350519139e-01 4.5942082900615411e-01 2.4079875238802204e-01  5.0065062557343964e-01 4.7664401091007186e-01 2.4543955699633249e-01  5.0399503581729510e-01 4.9349337101155022e-01 2.5034850668036862e-01  5.0738123185450368e-01 5.0973065298280562e-01 2.5544830558779585e-01  5.1075953466741697e-01 5.2519005702924981e-01 2.6064717539834320e-01  5.1409292735567547e-01 5.3969606835279560e-01 2.6588010797639938e-01  5.1734161068070916e-01 5.5316519183567125e-01 2.7106807726583326e-01  5.2046847657290229e-01 5.6552133026314988e-01 2.7613721997076046e-01  5.2343757966690330e-01 5.7672756701782646e-01 2.8101348213614474e-01  5.2621801408573576e-01 5.8677485267282670e-01 2.8562870866211471e-01  5.2878125029210310e-01 5.9566899311015031e-01 2.8991695767113329e-01  5.3110404780870446e-01 6.0344995862294937e-01 2.9381968675978931e-01  5.3316459434105390e-01 6.1015645254260631e-01 2.9727902086548524e-01  5.3494422959344679e-01 6.1583413940977938e-01 3.0024083842708493e-01  5.3642925909034278e-01 6.2053878009868324e-01 3.0265786639156411e-01  5.3761079421219626e-01 6.2433093109502846e-01 3.0449063093837025e-01  5.3848300482073963e-01 6.2726770641693641e-01 3.0570455340618230e-01  5.3904188781831319e-01 6.2939847829620776e-01 3.0626817121469091e-01  5.3929099961480886e-01 6.3077904360321935e-01 3.0616600575989533e-01  5.3923301733830720e-01 6.3144820938954282e-01 3.0538266604879633e-01  5.3887753719676890e-01 6.3143865897804397e-01 3.0391816402232102e-01  5.3822939103827949e-01 6.3080344571751312e-01 3.0176998821496853e-01  5.3731509386646448e-01 6.2951500437577868e-01 2.9897857561784319e-01  5.3613536375241055e-01 6.2764343702684311e-01 2.9554007885981665e-01  5.3470604358135321e-01 6.2521647343607456e-01 2.9149697023249166e-01  5.3308636289889177e-01 6.2213206579785696e-01 2.8696310354554377e-01  5.3123878441237282e-01 6.1852068523735293e-01 2.8187199391756657e-01  5.2921229180